LAMMPS (29 Sep 2021 - Update 2)
  using 1 OpenMP thread(s) per MPI task
plugin load libdeepmd_lmp.so
Loading plugin: deepmd pair style v2.0 by Han Wang
Loading plugin: compute deeptensor/atom v2.0 by Han Wang
Loading plugin: fix dplr v2.0 by Han Wang
echo both

include		in.partitions
variable        pid world 0
include		in.temp
variable        temperature equal 260
variable        tempDamp equal 0.100
include		in.pressure
variable        pressure equal 986.923
variable        pressureDamp equal 1.0 # This is 1 ps
include		in.seed
variable        seed world 745823

units           metal
atom_style	full
include		in.box
read_data       water.data
Reading data file ...
  orthogonal box = (0.0000000 0.0000000 0.0000000) to (18.207573 21.446115 22.213196)
  1 by 1 by 1 MPI processor grid
  reading atoms ...
  864 atoms
  reading velocities ...
  864 velocities
Finding 1-2 1-3 1-4 neighbors ...
  special bond factors lj:    0        0        0       
  special bond factors coul:  0        0        0       
     0 = max # of 1-2 neighbors
     0 = max # of 1-3 neighbors
     0 = max # of 1-4 neighbors
     1 = max # of special neighbors
  special bonds CPU = 0.000 seconds
  read_data CPU = 9.373 seconds
include 	in.setup
variable	out_freq equal 500
variable	out_freq2 equal 500

timestep        0.0005

neigh_modify    delay 7 every 1

include         in.deepmd
# This is deepMD model

# create groups ###
#group ox type 2
#group hy type 1

mass 2 15.999
mass 1 1.008

pair_style      deepmd ../graph.pb
pair_coeff      * *

bond_style      none
angle_style     none
dihedral_style  none
improper_style  none
neigh_modify exclude none


neighbor        2.0 bin
neigh_modify    every 10 delay 0 check no

thermo          ${out_freq}
thermo          500
thermo_style 	custom step temp pe etotal epair emol press lx ly lz xy xz yz vol pxx pyy pzz pxy pxz pyz cella cellb cellc cellalpha cellbeta cellgamma


restart 	${out_freq} restart.lmp.${pid} restart2.lmp.${pid}
restart 	500 restart.lmp.${pid} restart2.lmp.${pid}
restart 	500 restart.lmp.0 restart2.lmp.${pid}
restart 	500 restart.lmp.0 restart2.lmp.0


include         in.dump
dump            myDump all atom ${out_freq2} dump.water.${pid}
dump            myDump all atom 500 dump.water.${pid}
dump            myDump all atom 500 dump.water.0
dump            myDump2 all dcd ${out_freq2} dump.dcd
dump            myDump2 all dcd 500 dump.dcd
dump_modify     myDump append yes
dump_modify     myDump2 append yes


timer           timeout 23:50:00 every 1000
New timer settings: style=normal  mode=nosync  timeout=23:50:00

fix             2 all nph iso ${pressure} ${pressure} ${pressureDamp}
fix             2 all nph iso 986.923 ${pressure} ${pressureDamp}
fix             2 all nph iso 986.923 986.923 ${pressureDamp}
fix             2 all nph iso 986.923 986.923 1
fix             3 all temp/csvr ${temperature} ${temperature} ${tempDamp} ${seed}
fix             3 all temp/csvr 260 ${temperature} ${tempDamp} ${seed}
fix             3 all temp/csvr 260 260 ${tempDamp} ${seed}
fix             3 all temp/csvr 260 260 0.1 ${seed}
fix             3 all temp/csvr 260 260 0.1 745823
velocity 	all create ${temperature} ${seed} dist gaussian
velocity 	all create 260 ${seed} dist gaussian
velocity 	all create 260 745823 dist gaussian

run             2000000

CITE-CITE-CITE-CITE-CITE-CITE-CITE-CITE-CITE-CITE-CITE-CITE-CITE

Your simulation uses code contributions which should be cited:

- USER-DEEPMD package:

@article{Wang_ComputPhysCommun_2018_v228_p178,
  author = {Wang, Han and Zhang, Linfeng and Han, Jiequn and E, Weinan},
  doi = {10.1016/j.cpc.2018.03.016},
  url = {https://doi.org/10.1016/j.cpc.2018.03.016},
  year = 2018,
  month = {jul},
  publisher = {Elsevier {BV}},
  volume = 228,
  journal = {Comput. Phys. Commun.},
  title = {{DeePMD-kit: A deep learning package for many-body potential energy representation and molecular dynamics}},
  pages = {178--184}
}

CITE-CITE-CITE-CITE-CITE-CITE-CITE-CITE-CITE-CITE-CITE-CITE-CITE

Neighbor list info ...
  update every 10 steps, delay 0 steps, check no
  max neighbors/atom: 2000, page size: 100000
  master list distance cutoff = 8
  ghost atom cutoff = 8
  binsize = 4, bins = 5 6 6
  1 neighbor lists, perpetual/occasional/extra = 1 0 0
  (1) pair deepmd, perpetual
      attributes: full, newton on
      pair build: full/bin
      stencil: full/bin/3d
      bin: standard
Per MPI rank memory allocation (min/avg/max) = 7.215 | 7.215 | 7.215 Mbytes
Step Temp PotEng TotEng E_pair E_mol Press Lx Ly Lz Xy Xz Yz Volume Pxx Pyy Pzz Pxy Pxz Pyz Cella Cellb Cellc CellAlpha CellBeta CellGamma 
       0          260    -134.9383   -105.93491    -134.9383            0     24562.63    18.207573    21.446115    22.213196            0            0            0    8673.8466    24437.109    25331.419    23919.362    1104.8735   -265.92244   -870.14307    18.207573    21.446115    22.213196           90           90           90 
     500    255.48048   -128.54971   -100.05048   -128.54971            0   -1872.6453    18.275894    21.526588    22.296547            0            0            0    8771.8545    710.53055    -4028.796   -2299.6705    1276.0904   -1314.5599   -747.33041    18.275894    21.526588    22.296547           90           90           90 
    1000    263.24139   -126.76699   -97.402014   -126.76699            0    2615.2236    18.279345    21.530652    22.300757            0            0            0    8776.8246    1749.2879    3119.5368    2976.8462   -1340.7009    1283.0042        -1125    18.279345    21.530652    22.300757           90           90           90 
    1500    250.67793   -127.13523   -99.171725   -127.13523            0    1190.1988    18.226089    21.467924    22.235785            0            0            0    8700.3359    498.50805   -1253.4721    4325.5606    1462.5053   -43.964427   -636.36732    18.226089    21.467924    22.235785           90           90           90 
    2000     258.3456   -125.57394   -96.755096   -125.57394            0   -3032.2665    18.175037    21.407792    22.173502            0            0            0    8627.4302   -1924.9062   -3137.3469   -4034.5465   -2241.1397    715.79542    397.33819    18.175037    21.407792    22.173502           90           90           90 
    2500    272.22111   -126.35705    -95.99038   -126.35705            0    3059.9489    18.172102    21.404335    22.169922            0            0            0    8623.2522    3609.3289    4399.0812    1171.4366    328.98614   -603.63354   -2097.9168    18.172102    21.404335    22.169922           90           90           90 
    3000    261.80199   -125.30091   -96.096501   -125.30091            0   -877.61269    18.217397    21.457687    22.225181            0            0            0    8687.8944   -2694.8635     1607.161   -1545.1356   -2782.3355    365.88757    538.14482    18.217397    21.457687    22.225181           90           90           90 
    3500    257.23377   -126.03113   -97.336316   -126.03113            0    529.97279    18.199349    21.436428    22.203163            0            0            0    8662.0985    1787.4007   -1694.1159    1496.6335   -459.21167    946.05893    992.57777    18.199349    21.436428    22.203163           90           90           90 
    4000    254.14397   -126.33982   -97.989682   -126.33982            0    2085.6702    18.134774    21.360367    22.124381            0            0            0    8570.2207    2543.7562    1473.3591    2239.8952   -323.85855   -666.78846   -1131.6571    18.134774    21.360367    22.124381           90           90           90 
    4500      248.634   -124.62521   -96.889715   -124.62521            0    197.93047    18.159987    21.390065    22.155141            0            0            0    8606.0162    1266.2448   -1255.4373     582.9839    211.91848     900.3606    2195.9194    18.159987    21.390065    22.155141           90           90           90 
    5000     256.2936   -125.25527   -96.665337   -125.25527            0    2268.0016    18.048179     21.25837    22.018736            0            0            0    8448.0354    364.81492    4623.7212    1815.4687    475.41686    98.162534   -1712.5389    18.048179     21.25837    22.018736           90           90           90 
    5500    251.23374   -126.41208   -98.386576   -126.41208            0   -131.18821     18.03963    21.248301    22.008306            0            0            0    8436.0365    805.35429    190.52932   -1389.4482   -1542.0944    441.65547    93.210784     18.03963    21.248301    22.008306           90           90           90 
    6000    253.31216    -125.8325   -97.575144    -125.8325            0    2894.3973     18.07748    21.292883    22.054483            0            0            0     8489.248    1084.6452    4781.3519    2817.1946   -667.97189     681.4137   -148.29348     18.07748    21.292883    22.054483           90           90           90 
    6500    248.37793   -125.11652   -97.409584   -125.11652            0   -2130.2516    17.999656    21.201216    21.959538            0            0            0      8380.08    -3125.369   -2.5306805   -3262.8551   -849.63379   -1297.4911    1505.3689    17.999656    21.201216    21.959538           90           90           90 
    7000    265.91183   -124.89087    -95.22801   -124.89087            0    2983.2533    18.044208    21.253692     22.01389            0            0            0    8442.4597    920.49599    3923.5123    4105.7515   -442.64197     1081.973   -1064.0836    18.044208    21.253692     22.01389           90           90           90 
    7500    268.21674    -124.9237   -95.003718    -124.9237            0   -134.00843    18.058331    21.270328    22.031121            0            0            0    8462.2998    2385.6136   -1077.3838   -1710.2551    1361.4526    606.22648   -852.17045    18.058331    21.270328    22.031121           90           90           90 
    8000    261.31905   -124.18332   -95.032782   -124.18332            0   -1788.0119    17.827552      20.9985    21.749571            0            0            0    8141.9922   -2685.5143   -3002.4763    323.95477      784.982   -574.35391    -1812.228    17.827552      20.9985    21.749571           90           90           90 
    8500    262.38163   -125.10756   -95.838489   -125.10756            0   -202.78285    17.824889    20.995363    21.746322            0            0            0    8138.3437   -925.89307    1302.8744   -985.32994    789.10442   -427.80283    2690.7247    17.824889    20.995363    21.746322           90           90           90 
    9000    268.27025   -124.56409   -94.638142   -124.56409            0    1265.6971    17.840733    21.014025    21.765652            0            0            0    8160.0648   -599.34568    2472.2996    1924.1375   -1271.9207    498.11681   -1578.4126    17.840733    21.014025    21.765652           90           90           90 
    9500    272.98756   -125.36464   -94.912463   -125.36464            0   -665.98095    17.861117    21.038036    21.790521            0            0            0    8188.0678    1287.3756   -1326.2155    -1959.103   -2432.5304    435.87105   -1.6810231    17.861117    21.038036    21.790521           90           90           90 
   10000    265.46152   -124.01986   -94.407227   -124.01986            0    9.0222197     17.90351    21.087968    21.842239            0            0            0    8246.5079    1041.7329   -1448.9544    434.28817   -1017.4942   -581.74676   -2735.9046     17.90351    21.087968    21.842239           90           90           90 
   10500    271.08444   -123.60059   -93.360715   -123.60059            0    1098.9068    17.963982    21.159197    21.916016            0            0            0    8330.3532   -1169.6023    4458.2727    8.0501149   -904.95181    953.14815   -1657.8073    17.963982    21.159197    21.916016           90           90           90 
   11000    268.29027   -124.27225   -94.344062   -124.27225            0   -973.56457    17.859747    21.036422    21.788849            0            0            0    8186.1836   -1887.6551   -414.15594   -618.88269    59.771679    1846.9566    866.62372    17.859747    21.036422    21.788849           90           90           90 
   11500    263.61996   -125.03399   -95.626785   -125.03399            0    2173.7227    17.809646     20.97741    21.727726            0            0            0     8117.484    1600.6453    1457.2168     3463.306   -340.77581    285.82201   -231.75941    17.809646     20.97741    21.727726           90           90           90 
   12000    265.27407   -124.43437   -94.842652   -124.43437            0    2672.3725    17.865222    21.042871    21.795529            0            0            0    8193.7141    5853.9894   -1170.9673    3334.0954    1763.8098    415.16178    492.42117    17.865222    21.042871    21.795529           90           90           90 
   12500    265.71631   -124.40343   -94.762376   -124.40343            0   -545.07995    17.950305    21.143088     21.89933            0            0            0    8311.3406   -316.45803   -473.11055   -845.67125    2239.2412   -95.445279    491.98931    17.950305    21.143088     21.89933           90           90           90 
   13000    266.43123   -123.75275    -94.03195   -123.75275            0   -202.68614    17.955221    21.148878    21.905327            0            0            0    8318.1706    793.08041    240.08369   -1641.2225     1953.597   -1318.8169   -1614.3107    17.955221    21.148878    21.905327           90           90           90 
   13500    262.90632    -125.8694   -96.541808    -125.8694            0    1872.1452    17.882001    21.062634    21.815999            0            0            0    8216.8225    3145.7996   -2068.5175    4539.1535    1744.2342   -2320.3827   -2774.6417    17.882001    21.062634    21.815999           90           90           90 
   14000    251.55894   -125.08033   -97.018552   -125.08033            0   -411.39123    17.906287     21.09124    21.845628            0            0            0    8250.3461   -1605.3879    1856.7798   -1485.5656   -841.26412    570.04695    847.29263    17.906287     21.09124    21.845628           90           90           90 
   14500    256.53349   -127.02322   -98.406524   -127.02322            0    3481.9913    17.948459    21.140913    21.897077            0            0            0    8308.7758    3425.4597    2923.2815    4097.2328   -1467.9698   -1216.0894   -818.98874    17.948459    21.140913    21.897077           90           90           90 
   15000    264.26814   -126.03758   -96.558068   -126.03758            0    4361.6502     17.85863    21.035106    21.787486            0            0            0    8184.6475    4265.6254    5771.3551      3047.97    1081.5497     316.9765   -77.647884     17.85863    21.035106    21.787486           90           90           90 
   15500    251.76573   -124.35275   -96.267907   -124.35275            0    1509.8173    17.883542    21.064449    21.817879            0            0            0     8218.947    2359.5916    2948.4493   -778.58924     1106.624   -1634.8132    419.30911    17.883542    21.064449    21.817879           90           90           90 
   16000    263.69969   -126.30148   -96.885379   -126.30148            0    2565.3236    17.894252    21.077065    21.830946            0            0            0    8233.7227    1879.4513    5092.0074    724.51225    1829.1134   -938.29819    180.36421    17.894252    21.077065    21.830946           90           90           90 
   16500     263.8837   -126.10101   -96.664385   -126.10101            0    3730.9446     17.83697    21.009594    21.761061            0            0            0    8154.9032    2517.0556    2509.6833    6166.0948   -97.279192    43.478036   -934.26885     17.83697    21.009594    21.761061           90           90           90 
   17000    254.27224   -125.28182   -96.917369   -125.28182            0    764.93549    17.921754    21.109458    21.864497            0            0            0    8271.7438    258.12568   -94.964428    2131.6452    290.30929    -286.9882   -239.40405    17.921754    21.109458    21.864497           90           90           90 
   17500     260.0989   -125.12156   -96.107132   -125.12156            0    602.88482    17.865035    21.042651      21.7953            0            0            0    8193.4569    526.66201   -1390.8401    2672.8326    2286.9436    944.01468   -3273.2328    17.865035    21.042651      21.7953           90           90           90 
   18000    251.85482   -126.77014   -98.675353   -126.77014            0    2125.5706    17.886125    21.067492     21.82103            0            0            0    8222.5089    1212.8846    1478.8419    3684.9853   -77.090666    831.02641    -290.8933    17.886125    21.067492     21.82103           90           90           90 
   18500    255.69306   -126.04543   -97.522487   -126.04543            0   -514.56024    17.913613    21.099869    21.854565            0            0            0    8260.4768    -3206.403    370.61261    1292.1097    2196.3539   -392.67818    715.23586    17.913613    21.099869    21.854565           90           90           90 
   19000     249.8591   -125.49253    -97.62037   -125.49253            0    2315.6426    17.816029    20.984928    21.735513            0            0            0    8126.2145     440.2035    2292.3887    4214.3356   -1449.7823   -693.28565   -1692.3381    17.816029    20.984928    21.735513           90           90           90 
   19500    259.84315   -126.45765   -97.471751   -126.45765            0    1503.1581    17.896892    21.080174    21.834166            0            0            0    8237.3673   -974.95463    958.06737    4526.3617    1123.0669   -1715.0101    1005.1428    17.896892    21.080174    21.834166           90           90           90 
   20000    260.11951   -127.63342     -98.6167   -127.63342            0    1663.8122    18.000166    21.201817     21.96016            0            0            0     8380.793    2393.3532    2027.9195    570.16389   -1492.3918     289.0727   -430.67553    18.000166    21.201817     21.96016           90           90           90 
   20500    254.57455   -126.85518   -98.457007   -126.85518            0    2299.9312    17.913505    21.099742    21.854434            0            0            0    8260.3281    2430.4352    2465.3088    2004.0498   -2618.5628    -2210.449    409.41624    17.913505    21.099742    21.854434           90           90           90 
   21000     257.7098   -127.78473    -99.03681   -127.78473            0   -1489.3519    17.937921    21.128501    21.884221            0            0            0    8294.1501   -2431.2872   -2174.5655    137.79699    319.97719    282.97359     1855.912    17.937921    21.128501    21.884221           90           90           90 
   21500    253.44758   -128.04348    -99.77102   -128.04348            0    1243.0119     17.91372    21.099995    21.854696            0            0            0    8260.6253    5534.9093   -951.39542   -854.47823   -1478.3939    1848.8017   -2091.3409     17.91372    21.099995    21.854696           90           90           90 
   22000    268.89725   -128.34988   -98.353985   -128.34988            0    2798.4619    17.918561    21.105697    21.860602            0            0            0    8267.3241    1893.3177    3106.2898    3395.7781   -131.14945   -1793.3155   -463.48725    17.918561    21.105697    21.860602           90           90           90 
   22500    261.71884   -127.64287   -98.447737   -127.64287            0   -402.55997     17.93297    21.122669    21.878181            0            0            0    8287.2845    823.37665   -398.12929   -1632.9273   -889.02366   -124.45259     181.0061     17.93297    21.122669    21.878181           90           90           90 
   23000    254.71471   -127.21406   -98.800246   -127.21406            0    1997.3941    17.872735    21.051721    21.804695            0            0            0    8204.0565   -1559.1529    4557.5728    2993.7624    258.07503   -590.68026   -1132.7682    17.872735    21.051721    21.804695           90           90           90 
   23500    262.69596   -126.46039   -97.156261   -126.46039            0   -1421.8608    17.959955    21.154453    21.911102            0            0            0    8324.7513    2272.4661   -4121.4043   -2416.6443   -36.932902   -1974.0158   -3954.9533    17.959955    21.154453    21.911102           90           90           90 
   24000    277.40594   -126.75029   -95.805243   -126.75029            0    2606.0635    17.909489    21.095012    21.849535            0            0            0    8254.7736    2039.3205    4850.5929    928.27716    517.39583     -97.6484   -873.92683    17.909489    21.095012    21.849535           90           90           90 
   24500    254.13075   -126.26366   -97.914991   -126.26366            0    -978.1719    17.987761    21.187206    21.945026            0            0            0     8363.478   -2021.8021   -537.80489   -374.90876   -648.18516   -1094.7783   -1126.2895    17.987761    21.187206    21.945026           90           90           90 
   25000    268.99968   -125.52994   -95.522616   -125.52994            0    4238.3679    18.006776    21.209603    21.968225            0            0            0    8390.0294    2159.7521    6561.3302    3994.0214    1246.1573   -568.42014    565.76412    18.006776    21.209603    21.968225           90           90           90 
   25500    262.68393   -124.32767   -95.024885   -124.32767            0    3175.1045    17.956922    21.150881    21.907402            0            0            0    8320.5344    4317.3273    2188.3584    3019.6277   -1238.4069   -1102.2344    1869.9477    17.956922    21.150881    21.907402           90           90           90 
   26000    269.25072   -125.51424    -95.47892   -125.51424            0    2411.7867    17.919665    21.106997    21.861948            0            0            0    8268.8514    5796.0881    3751.5788   -2312.3067   -1098.6573    1828.6815    1442.4257    17.919665    21.106997    21.861948           90           90           90 
   26500    257.09454   -125.62875   -96.949466   -125.62875            0    1516.4619    17.861985    21.039058    21.791579            0            0            0    8189.2607    3228.2415     1482.244    -161.0998    1029.8059    506.82867   -1070.2764    17.861985    21.039058    21.791579           90           90           90 
   27000    269.18928   -125.65583   -95.627364   -125.65583            0    1364.5143    17.966385    21.162027    21.918947            0            0            0    8333.6955   -84.396058    3959.0173    218.92174   -607.06625    1620.0699    -1226.584    17.966385    21.162027    21.918947           90           90           90 
   27500    259.43972   -125.54613   -96.605237   -125.54613            0    653.16818    18.022002    21.227536    21.986799            0            0            0    8411.3293    1178.6201    1310.2739   -529.38937   -1564.3937    597.73137    2227.9931    18.022002    21.227536    21.986799           90           90           90 
   28000    266.83487   -127.55235   -97.786521   -127.55235            0   -123.09009    17.998954    21.200389    21.958681            0            0            0    8379.0996   -2943.0687   -290.77762    2864.5761    1535.3495   -224.70425   -428.12434    17.998954    21.200389    21.958681           90           90           90 
   28500    268.20295    -126.5896   -96.671158    -126.5896            0   -2229.6081    17.871465    21.050224    21.803145            0            0            0    8202.3068   -2185.1335   -2649.9493   -1853.7415    1533.1766   -412.99168   -1630.7264    17.871465    21.050224    21.803145           90           90           90 
   29000    255.38209   -125.48874    -97.00048   -125.48874            0    392.60666    17.870497    21.049084    21.801964            0            0            0    8200.9743   -417.68928    1743.2988   -147.78949    1508.2947    1539.8945    319.92201    17.870497    21.049084    21.801964           90           90           90 
   29500     269.9505   -126.10484   -95.991454   -126.10484            0    2825.3781    17.815505     20.98431    21.734874            0            0            0    8125.4972    4406.7265   -1050.7223    5120.1303    -813.3894    2072.9656    -191.6679    17.815505     20.98431    21.734874           90           90           90 
   30000    271.32754   -124.61919   -94.352195   -124.61919            0   -3386.7624    17.947078    21.139286    21.895393            0            0            0    8306.8585   -5011.0757   -880.76003   -4268.4514   -1937.3073    2871.2377    484.99414    17.947078    21.139286    21.895393           90           90           90 
   30500    262.78685   -124.67455   -95.360281   -124.67455            0    1649.9881    17.980388    21.178521    21.936031            0            0            0    8353.1975    3723.5527   -1835.6195    3062.0311   -592.00084   -1560.0306     1385.636    17.980388    21.178521    21.936031           90           90           90 
   31000    271.52924   -125.64965   -95.360156   -125.64965            0    2511.0229    17.936068    21.126318    21.881961            0            0            0      8291.58    1405.5451    1798.3372    4329.1864    939.39572   -319.73029    137.13287    17.936068    21.126318    21.881961           90           90           90 
   31500    270.29606   -126.26738   -96.115442   -126.26738            0    2063.2126     17.91205    21.098028    21.852659            0            0            0    8258.3148     1898.182     1812.798    2478.6576   -72.827999    1150.8307   -252.14654     17.91205    21.098028    21.852659           90           90           90 
   32000    255.56103   -126.00906   -97.500839   -126.00906            0   -111.18833     17.91124    21.097073     21.85167            0            0            0    8257.1941   -1775.9185    182.89906    1259.4545   -2813.7227     -835.832   -941.74292     17.91124    21.097073     21.85167           90           90           90 
   32500    259.71414   -125.86968   -96.898174   -125.86968            0    2601.6547    17.887578    21.069203    21.822802            0            0            0    8224.5122    1110.5628    2980.1676    3714.2336     330.2239    -1355.381    371.39364    17.887578    21.069203    21.822802           90           90           90 
   33000    262.26871   -126.05752   -96.801055   -126.05752            0   -1149.5458    17.847664     21.02219    21.774108            0            0            0    8169.5795   -2834.4488    1969.4949   -2583.6835   -2050.8059    61.471315   -1482.6793    17.847664     21.02219    21.774108           90           90           90 
   33500     253.4216   -125.04403   -96.774469   -125.04403            0    2308.6481    17.866646    21.044548    21.797266            0            0            0    8195.6734    1591.0885   -309.71344    5644.5693    1505.4082   -1805.1431   -1792.4304    17.866646    21.044548    21.797266           90           90           90 
   34000    257.70989   -127.42626   -98.678338   -127.42626            0    2125.1175    17.792028    20.956658    21.706232            0            0            0    8093.4174    1381.9548    4344.6138    648.78394   -297.27237    2355.7133    162.95057    17.792028    20.956658    21.706232           90           90           90 
   34500    241.63995   -126.60354   -99.648243   -126.60354            0    1141.5135     17.86073    21.037579    21.790048            0            0            0    8187.5346    896.16029    1937.0084    591.37193    1585.3814    413.87067   -237.47088     17.86073    21.037579    21.790048           90           90           90 
   35000    257.02087   -129.47742   -100.80636   -129.47742            0    451.88161    17.940805    21.131897    21.887739            0            0            0    8298.1506    1694.6535   -1152.7712    813.76252    189.18502    3496.6649    399.85857    17.940805    21.131897    21.887739           90           90           90 
   35500    257.33645   -128.32331   -99.617041   -128.32331            0    2648.9874    17.897724    21.081153    21.835181            0            0            0    8238.5154    1588.0539    2397.4244    3961.4839   -259.30286   -823.61565    1244.8887    17.897724    21.081153    21.835181           90           90           90 
   36000     252.7183   -127.55942   -99.368314   -127.55942            0      1369.06    17.823697     20.99396    21.744869            0            0            0    8136.7123    2599.1527   -1099.2945    2607.3217    2252.7228   -489.59603   -3131.9516    17.823697     20.99396    21.744869           90           90           90 
   36500    261.09462   -126.40996    -97.28446   -126.40996            0    1991.7619    17.737133    20.891999     21.63926            0            0            0    8018.7346    2029.5148    345.77093    3599.9999   -1755.7417   -1329.3209    63.983443    17.737133    20.891999     21.63926           90           90           90 
   37000    260.49644    -126.8044   -97.745629    -126.8044            0   -131.28996    17.792037    20.956668    21.706243            0            0            0    8093.4287   -820.89447   -234.48136    661.50595   -416.79218   -976.94545    1338.9115    17.792037    20.956668    21.706243           90           90           90 
   37500    258.69183   -126.62978   -97.772316   -126.62978            0    -422.5124    17.877513    21.057348    21.810524            0            0            0    8210.6373   -477.00444    279.26522    -1069.798    770.92695    55.260191   -1284.1747    17.877513    21.057348    21.810524           90           90           90 
   38000    264.79178   -125.80703   -96.269109   -125.80703            0    2782.4598     17.82277    20.992867    21.743737            0            0            0    8135.4417     1807.566    2301.0764    4238.7368      2729.33   -984.82867   -2.5336038     17.82277    20.992867    21.743737           90           90           90 
   38500    262.18426   -126.14936   -96.902315   -126.14936            0    1789.5387    17.793635    20.958551    21.708193            0            0            0    8095.6103    2471.0103    1872.6126    1024.9933   -661.44139    1497.5976    231.00023    17.793635    20.958551    21.708193           90           90           90 
   39000    253.92896    -125.6461   -97.319942    -125.6461            0    4139.3363     17.76317    20.922667    21.671026            0            0            0    8054.0997    4002.5006    4578.6866    3836.8218   -579.59076    114.08656   -154.41646     17.76317    20.922667    21.671026           90           90           90 
   39500    264.08759   -125.88444   -96.425074   -125.88444            0   -565.48512     17.78948    20.953656    21.703123            0            0            0    8089.9401    907.82094   -1127.1169   -1477.1594    142.47903   -22.536552    1660.7897     17.78948    20.953656    21.703123           90           90           90 
   40000    253.86953   -126.15546   -97.835932   -126.15546            0    1682.4691    17.786758    20.950451    21.699803            0            0            0    8086.2274    1355.6621    3162.5783     529.1668    300.78947    1193.9213    887.17428    17.786758    20.950451    21.699803           90           90           90 
   40500    254.28793      -127.09   -98.723801      -127.09            0    1928.6406    17.777929    20.940051    21.689031            0            0            0    8074.1913    1029.4669    3005.2112    1751.2437     1324.656    1448.4588   -169.62054    17.777929    20.940051    21.689031           90           90           90 
   41000    254.95814    -125.5058    -97.06484    -125.5058            0   -2259.6072    17.839675     21.01278    21.764362            0            0            0    8158.6144   -1292.0215   -6080.0324    593.23228   -1946.5195    337.97977    2425.2754    17.839675     21.01278    21.764362           90           90           90 
   41500    260.74301   -125.78145   -96.695178   -125.78145            0    3265.0015    17.750995    20.908326    21.656171            0            0            0     8037.549    3961.9312    4004.1796    1828.8938    1181.5111   -2216.0656   -275.05423    17.750995    20.908326    21.656171           90           90           90 
   42000    254.42826   -125.25667   -96.874818   -125.25667            0    298.46552    17.793991     20.95897    21.708626            0            0            0    8096.0955    -903.3739   -1632.0747    3430.8452    2254.6089    1000.7399    1566.5923    17.793991     20.95897    21.708626           90           90           90 
   42500    270.02357   -125.95625   -95.834715   -125.95625            0     1008.893    17.784497    20.947788    21.697044            0            0            0    8083.1442    98.395304     1006.074    1922.2097     2289.792    537.72439   -1905.5596    17.784497    20.947788    21.697044           90           90           90 
   43000    264.93403   -125.97453   -96.420738   -125.97453            0    -1138.768    17.796036    20.961379    21.711122            0            0            0    8098.8885    1293.5113    -1502.783   -3207.0323   -1046.9216   -924.49303    862.93713    17.796036    20.961379    21.711122           90           90           90 
   43500     254.0313   -126.03197   -97.694399   -126.03197            0   -121.52758    17.845306    21.019413    21.771231            0            0            0    8166.3422    -1471.061    2667.8386   -1561.3604    1021.9137    1140.2896    101.51758    17.845306    21.019413    21.771231           90           90           90 
   44000    254.25022   -125.53488   -97.172889   -125.53488            0    3335.5545    17.796296    20.961686     21.71144            0            0            0    8099.2434    2998.8413    5346.1467    1661.6753   -581.29968   -1160.2622   -1398.1975    17.796296    20.961686     21.71144           90           90           90 
   44500    262.10393   -127.14102   -97.902936   -127.14102            0    643.22328    17.854888    21.030698    21.782921            0            0            0    8179.5034    2748.8031   -293.48356   -525.64974   -352.44149    2662.4739    1856.7896    17.854888    21.030698    21.782921           90           90           90 
   45000    252.37419   -128.05252   -99.899797   -128.05252            0    2840.3964    17.900126    21.083983    21.838111            0            0            0    8241.8327    3153.2508    1920.3276    3447.6108    1942.8821      978.516     1507.738    17.900126    21.083983    21.838111           90           90           90 
   45500    257.12176   -127.56003   -98.877711   -127.56003            0    2975.9397    17.846704    21.021059    21.772937            0            0            0    8168.2614    2823.7551    1036.8341    5067.2298    -957.1352   -110.34404    358.14874    17.846704    21.021059    21.772937           90           90           90 
   46000     257.3774   -126.65044   -97.939607   -126.65044            0   -1358.9867    17.836091    21.008558    21.759989            0            0            0    8153.6976    774.51146   -3477.0654    -1374.406   -2754.0452     2410.509   -2799.7025    17.836091    21.008558    21.759989           90           90           90 
   46500    256.82986   -126.78867   -98.138916   -126.78867            0    3900.9192    17.795266    20.960472    21.710182            0            0            0    8097.8364    3895.5769    3972.8576    3834.3231    1189.7605   -358.00301    3115.7667    17.795266    20.960472    21.710182           90           90           90 
   47000    263.62389   -127.01267   -97.605024   -127.01267            0   -210.90145    17.812131    20.980337    21.730758            0            0            0    8120.8824    566.68426     336.2597   -1535.6483   -117.74539   -1429.0079    1363.7807    17.812131    20.980337    21.730758           90           90           90 
   47500    260.96503   -125.73431    -96.62327   -125.73431            0    3144.0993     17.89767    21.081091    21.835115            0            0            0    8238.4416    2982.6292    821.86938    5627.7993    136.41971   -755.39554    2227.2873     17.89767    21.081091    21.835115           90           90           90 
   48000    264.54776   -125.77882   -96.268122   -125.77882            0    2287.9562    17.847258    21.021711    21.773612            0            0            0    8169.0219    544.10079    5887.9658    431.80192   -443.42212     2120.413   -2046.6841    17.847258    21.021711    21.773612           90           90           90 
   48500    264.77651   -126.30904   -96.772823   -126.30904            0     3824.517     17.77745    20.939487    21.688447            0            0            0     8073.539    5178.0442     1831.094    4464.4129   -267.34624   -668.51809   -1147.4132     17.77745    20.939487    21.688447           90           90           90 
   49000     261.6967   -125.40492   -96.212262   -125.40492            0   -334.69911      17.8695     21.04791    21.800748            0            0            0    8199.6024    1085.6196   -597.84912   -1491.8678   -359.53656     1719.076     882.8096      17.8695     21.04791    21.800748           90           90           90 
   49500    272.14995   -122.93496   -92.576227   -122.93496            0    914.94758    17.876747    21.056445    21.809589            0            0            0    8209.5813    -806.9663    3775.0183   -223.20924   -1412.0502   -305.26302   -1185.2685    17.876747    21.056445    21.809589           90           90           90 
   50000    267.08826    -124.5401   -94.746006    -124.5401            0    3280.1122    17.801327    20.967611    21.717577            0            0            0    8106.1136    1142.2914    5199.8364    3498.2088   -407.70938   -622.20163   -671.47733    17.801327    20.967611    21.717577           90           90           90 
   50500      250.799   -124.79284   -96.815837   -124.79284            0   -1315.0646    17.920129    21.107544    21.862515            0            0            0    8269.4948   -706.16884   -2034.5999   -1204.4251    -710.7083   -810.22147   -880.64927    17.920129    21.107544    21.862515           90           90           90 
   51000    267.52727   -125.64776   -95.804691   -125.64776            0    361.25129    17.926432    21.114968    21.870204            0            0            0    8278.2228    2517.1174    1091.7563   -2525.1198   -128.48084   -678.57127    1207.9716    17.926432    21.114968    21.870204           90           90           90 
   51500    261.86085   -126.91898    -97.70801   -126.91898            0    1020.6179    17.874997    21.054385    21.807454            0            0            0    8207.1714    1959.9646    -749.5794    1851.4685   -500.07776    794.60079   -680.50483    17.874997    21.054385    21.807454           90           90           90 
   52000    249.06452   -127.81795   -100.03442   -127.81795            0   -678.39226    17.891783    21.074156    21.827932            0            0            0    8230.3138   -367.00669   -1290.2303   -377.93982    485.25164    844.92805   -287.22299    17.891783    21.074156    21.827932           90           90           90 
   52500    258.06341   -125.09805   -96.310686   -125.09805            0    3981.3344    17.889195    21.071108    21.824776            0            0            0    8226.7435    5682.3389    3392.3904    2869.2739   -1441.1309   -1439.2914    911.96178    17.889195    21.071108    21.824776           90           90           90 
   53000    262.53723   -126.86939   -97.582971   -126.86939            0    1488.2021    17.860683    21.037524    21.789991            0            0            0    8187.4703   -412.70225    2638.8082    2238.5002    2025.2157   -3943.6378   -1979.2027    17.860683    21.037524    21.789991           90           90           90 
   53500     266.0754   -127.75047   -98.069361   -127.75047            0    1777.3303    17.863452    21.040785    21.793369            0            0            0    8191.2784    3582.5673    1649.0981    100.32555   -1564.3415   -232.96711    917.72619    17.863452    21.040785    21.793369           90           90           90 
   54000    262.76123   -126.15641   -96.844997   -126.15641            0    1273.7635    17.917901     21.10492    21.859797            0            0            0    8266.4108    234.35062    715.43209    2871.5077    1364.3923   -272.42674    89.151408    17.917901     21.10492    21.859797           90           90           90 
   54500    250.68357    -127.6599   -99.695774    -127.6599            0   -100.86909    17.996015    21.196927    21.955095            0            0            0    8374.9952    870.51209   -818.81988   -354.29948   -119.41721    247.07997   -311.07798    17.996015    21.196927    21.955095           90           90           90 
   55000    256.38209   -126.34271   -97.742905   -126.34271            0     2270.149    17.840365    21.013593    21.765203            0            0            0    8159.5609    4018.3139    3140.1929   -348.05981    1238.2795    1325.9411    1244.3315    17.840365    21.013593    21.765203           90           90           90 
   55500    241.27786   -126.40919    -99.49428   -126.40919            0    820.40563    17.886504    21.067938    21.821492            0            0            0    8223.0309     1189.651   -741.83051    2013.3964     530.3125    2205.9058    2165.7812    17.886504    21.067938    21.821492           90           90           90 
   56000    276.60598   -127.19339    -96.33758   -127.19339            0    46.341132    17.948748    21.141253     21.89743            0            0            0     8309.177   -1195.2846    3014.1468   -1679.8388    -1599.665    1636.0991    1241.4417    17.948748    21.141253     21.89743           90           90           90 
   56500    265.35073   -126.20374   -96.603468   -126.20374            0   -986.65741    17.958337    21.152548    21.909129            0            0            0    8322.5026   -1964.1039   -2754.1631    1758.2948    1401.9017    62.599024   -2131.8969    17.958337    21.152548    21.909129           90           90           90 
   57000    257.95746   -125.96438   -97.188836   -125.96438            0    3096.9883    17.965254    21.160695    21.917567            0            0            0    8332.1222    2827.9159    5462.2271    1000.8219   -1434.2484   -2935.6765    320.90071    17.965254    21.160695    21.917567           90           90           90 
   57500    265.13272    -126.9615   -97.385547    -126.9615            0    4225.9352    17.859526    21.036162     21.78858            0            0            0    8185.8797    3259.8028     5822.991    3595.0118    1684.1492   -2632.6182   -823.94804    17.859526    21.036162     21.78858           90           90           90 
   58000    256.46885   -125.91789   -97.308408   -125.91789            0    1010.2233    17.966917    21.162654    21.919596            0            0            0    8334.4364    842.60148    899.97031    1288.0981    592.23067    633.45351    2084.9473    17.966917    21.162654    21.919596           90           90           90 
   58500    260.50703   -126.42228   -97.362329   -126.42228            0    1517.5655    17.974251    21.171292    21.928544            0            0            0    8344.6469    4101.0017     1067.158   -615.46318    1074.2627    34.117915   -372.12782    17.974251    21.171292    21.928544           90           90           90 
   59000    260.98736    -125.4376   -96.324065    -125.4376            0    4269.2352    17.915084    21.101601     21.85636            0            0            0    8262.5117    3355.3248     5937.948    3514.4326    493.00754   -2159.9502   -584.00376    17.915084    21.101601     21.85636           90           90           90 
   59500    257.86191   -124.98316   -96.218274   -124.98316            0   -132.57713    18.008835    21.212028    21.970736            0            0            0    8392.9075    2024.6718   -3495.4137    1073.0105    862.73018    2832.3438    208.92034    18.008835    21.212028    21.970736           90           90           90 
   60000    261.08736   -126.05501   -96.930319   -126.05501            0    2603.8532    17.893295    21.075937    21.829778            0            0            0    8232.4011    1354.4452    457.99131     5999.123    1157.5311    -935.6088   -81.029223    17.893295    21.075937    21.829778           90           90           90 
   60500    254.32928   -126.10722   -97.736405   -126.10722            0   -677.60319    17.929757    21.118884    21.874261            0            0            0    8282.8304   -1286.1649    862.01248   -1608.6571    -411.4181    1486.0507    3585.7145    17.929757    21.118884    21.874261           90           90           90 
   61000    257.51041   -124.48506   -95.759386   -124.48506            0   -1308.2446    17.995891    21.196781    21.954944            0            0            0    8374.8225   -2462.7346   -2026.4022    564.40306   -1117.6082   -88.964175     -234.868    17.995891    21.196781    21.954944           90           90           90 
   61500    260.07158   -124.30304   -95.291659   -124.30304            0   -710.46965    17.934349    21.124293    21.879863            0            0            0    8289.1959    883.00464    755.68283   -3770.0964   -1089.9545   -68.869646    -1045.094    17.934349    21.124293    21.879863           90           90           90 
   62000    275.51186    -125.9313   -95.197541    -125.9313            0    1486.7938    17.947397    21.139663    21.895782            0            0            0    8307.3021    1498.7316    3328.8339   -367.18402   -1642.0392    309.85368    14.462417    17.947397    21.139663    21.895782           90           90           90 
   62500     252.3684   -124.59851   -96.446438   -124.59851            0   -1696.6054     17.87688    21.056602    21.809751            0            0            0     8209.765   -2017.4168    -628.4989   -2443.9005   -2001.5423     142.1199    1501.7483     17.87688    21.056602    21.809751           90           90           90 
   63000    275.34441   -125.06952   -94.354435   -125.06952            0    438.02256    17.945496    21.137423    21.893462            0            0            0    8304.6616     662.5299    1070.9833   -419.44557   -2571.2684    695.95059    1994.6122    17.945496    21.137423    21.893462           90           90           90 
   63500     263.6679   -126.22924   -96.816688   -126.22924            0   -417.14069    17.894049    21.076825    21.830697            0            0            0    8233.4417    2264.8082   -2725.0222   -791.20811   -2107.4523    1138.5635    2190.8501    17.894049    21.076825    21.830697           90           90           90 
   64000    259.13472   -124.55593   -95.649059   -124.55593            0    2296.4575    17.917088    21.103962    21.858805            0            0            0    8265.2855    2880.2583    761.88318    3247.2311    1311.0232   -1133.9011   -1181.1818    17.917088    21.103962    21.858805           90           90           90 
   64500    255.43715   -124.54521   -96.050811   -124.54521            0    238.67727    18.082907    21.299275    22.061104            0            0            0    8496.8964   -2181.1163   -882.78747    3779.9356    1186.0939    2334.9704    311.09396    18.082907    21.299275    22.061104           90           90           90 
   65000    245.45537   -125.44089   -98.059974   -125.44089            0   -392.58288    17.977745    21.175408    21.932807            0            0            0    8349.5145    1556.8859   -1608.4098   -1126.2247   -76.029444   -449.37331   -2258.3308    17.977745    21.175408    21.932807           90           90           90 
   65500    258.01201   -125.78216   -97.000535   -125.78216            0    1600.5566    17.835296    21.007622    21.759019            0            0            0    8152.6072    506.62106     977.5633    3317.4853   -600.83138     1364.965    -2427.597    17.835296    21.007622    21.759019           90           90           90 
   66000    265.69724   -124.19538   -94.556454   -124.19538            0    1762.9504    17.942795    21.134242    21.890168            0            0            0    8300.9131    1719.6503    4671.7106   -1102.5095    1386.1432    1393.6509    -1949.302    17.942795    21.134242    21.890168           90           90           90 
   66500    252.64418   -123.36736   -95.184517   -123.36736            0   -903.40166    17.912973    21.099115    21.853784            0            0            0    8259.5911    -3274.062   -15.962976    579.82003   -2513.5549   -237.14366    936.84302    17.912973    21.099115    21.853784           90           90           90 
   67000    254.08816   -125.35193   -97.008015   -125.35193            0    268.05973    17.925192    21.113507    21.868691            0            0            0    8276.5049    635.32799   -2122.4427    2291.2939    3155.2774    962.00179   -2527.5025    17.925192    21.113507    21.868691           90           90           90 
   67500    258.83241   -125.74393   -96.870787   -125.74393            0    1744.3249    17.876233    21.055841    21.808962            0            0            0    8208.8744    180.93252    1678.5983    3373.4439   -34.127272    167.64726    200.08162    17.876233    21.055841    21.808962           90           90           90 
   68000    260.07912   -125.95981   -96.947595   -125.95981            0   -237.23335    17.859641    21.036297     21.78872            0            0            0    8186.0378    -958.5005    346.61701   -99.816552    1613.5006    1595.4719   -852.28304    17.859641    21.036297     21.78872           90           90           90 
   68500    271.23985   -126.53437   -96.277157   -126.53437            0    1250.2464    17.811749    20.979887    21.730292            0            0            0    8120.3595     3555.851    1548.6647   -1353.7764   -1685.7199   -661.39445   -2080.9561    17.811749    20.979887    21.730292           90           90           90 
   69000    251.47006   -125.65035   -97.598486   -125.65035            0   -2017.1279    17.846002    21.020232     21.77208            0            0            0     8167.297    634.02725   -2017.0858   -4668.3252   -630.95123    3220.9942   -3224.3793    17.846002    21.020232     21.77208           90           90           90 
   69500    251.01033    -125.4513   -97.450716    -125.4513            0    1252.6203    17.852882    21.028336    21.780474            0            0            0    8176.7476   -3374.0409    4943.8489     2188.053    2007.4502    2011.0767    228.96181    17.852882    21.028336    21.780474           90           90           90 
   70000     254.4882   -125.79775   -97.409208   -125.79775            0    825.74146     17.84886    21.023599    21.775567            0            0            0    8171.2222    1646.4342    1810.9007   -980.11053    2112.9037    1034.9166    -1628.749     17.84886    21.023599    21.775567           90           90           90 
   70500    257.37152   -126.22757   -97.517392   -126.22757            0    923.81879    17.903168    21.087566    21.841823            0            0            0    8246.0363    1833.7268    1315.5998   -377.87018    1027.1751    332.86178    585.96192    17.903168    21.087566    21.841823           90           90           90 
   71000    255.66504   -125.93478   -97.414965   -125.93478            0    1116.1875     17.94944    21.142068    21.898274            0            0            0    8310.1386    961.70287    2836.5223   -449.66271    -172.6253   -527.31044    1955.9426     17.94944    21.142068    21.898274           90           90           90 
   71500    267.38403   -127.37132   -97.544234   -127.37132            0   -1011.0742    17.832507    21.004336    21.755616            0            0            0    8148.7828    1760.5962   -2135.4939    -2658.325   -682.66406   -703.51913    70.867722    17.832507    21.004336    21.755616           90           90           90 
   72000    271.63943   -125.06817   -94.766383   -125.06817            0    2366.8963    17.867612    21.045685    21.798444            0            0            0    8197.0026    2754.8338     3722.353    623.50213    428.91968   -999.95864   -1183.7426    17.867612    21.045685    21.798444           90           90           90 
   72500     264.9559   -124.98324   -95.427008   -124.98324            0   -2855.5386    18.036848    21.245023    22.004911            0            0            0    8432.1334    975.89984   -4728.2782   -4814.2374   -1869.5305   -965.86539   -1335.3033    18.036848    21.245023    22.004911           90           90           90 
   73000    256.98661   -125.33454   -96.667296   -125.33454            0    3739.8813    17.798141    20.963858    21.713689            0            0            0    8101.7615    2337.2436    4124.9074     4757.493   -398.81763    848.41658   -242.51222    17.798141    20.963858    21.713689           90           90           90 
   73500    256.55384   -125.11652   -96.497557   -125.11652            0    297.55052    17.793413    20.958289    21.707922            0            0            0    8095.3073    2726.0883   -2382.7103    549.27359    104.61448    350.74365    44.585676    17.793413    20.958289    21.707922           90           90           90 
   74000    270.06018   -127.53976   -97.414139   -127.53976            0    1240.7045    17.923299    21.111278    21.866382            0            0            0    8273.8836    306.01566    3521.6237   -105.52599   -1179.9967   -1499.6142   -1364.6426    17.923299    21.111278    21.866382           90           90           90 
   74500    263.51393   -125.23764   -95.842263   -125.23764            0    2922.2912    17.868748    21.047024    21.799831            0            0            0     8198.567    1544.3818    5634.0486    1588.4434   -1116.0811    617.76999   -1333.3523    17.868748    21.047024    21.799831           90           90           90 
   75000    259.72304    -124.4236   -95.451103    -124.4236            0   -340.83513    17.867185    21.045183    21.797924            0            0            0    8196.4156    1332.7204   -3430.8405    1075.6147   -1114.6011    2613.8372   -2019.2151    17.867185    21.045183    21.797924           90           90           90 
   75500    260.11423   -126.43683   -97.420692   -126.43683            0    1170.8925    17.851276    21.026444    21.778515            0            0            0    8174.5409    934.31527    1736.3064    842.05598    275.39548   -3313.3145   -625.26855    17.851276    21.026444    21.778515           90           90           90 
   76000    253.17689   -125.23264   -96.990377   -125.23264            0    2231.6214    17.823756    20.994029     21.74494            0            0            0    8136.7922    4414.4089    844.46664    1435.9888    -2792.702    2498.5352   -364.76996    17.823756    20.994029     21.74494           90           90           90 
   76500    244.09142   -127.38278   -100.15402   -127.38278            0     153.5245    17.868891    21.047192    21.800004            0            0            0    8198.7631    1377.1776    1171.6834   -2088.2875   -805.91385   -1285.1698     1686.096    17.868891    21.047192    21.800004           90           90           90 
   77000    249.81316   -128.03543    -100.1684   -128.03543            0    -826.6347    17.880739    21.061148    21.814459            0            0            0    8215.0828   -2059.9351    142.10266   -562.07162    -162.3965    1659.5003    1963.1199    17.880739    21.061148    21.814459           90           90           90 
   77500    256.86993   -126.54088   -97.886652   -126.54088            0      1781.79    17.724587    20.877222    21.623955            0            0            0    8001.7312    1723.3536    2031.1522    1590.8641     1202.212   -1016.3463    2684.1801    17.724587    20.877222    21.623955           90           90           90 
   78000    266.57285   -124.97243    -95.23583   -124.97243            0    3900.2244    17.709044    20.858914    21.604992            0            0            0    7980.6984    4594.7675    3560.4741    3545.4315   -933.29539    1513.3735    234.35699    17.709044    20.858914    21.604992           90           90           90 
   78500    253.07649    -126.6734   -98.442334    -126.6734            0    1159.6688    17.737388      20.8923    21.639572            0            0            0    8019.0807   -1500.3525   -355.69829    5335.0571    1226.1215    -854.7422   -2400.9792    17.737388      20.8923    21.639572           90           90           90 
   79000    254.39496   -125.49345   -97.115304   -125.49345            0    2113.4595    17.795713    20.960998    21.710728            0            0            0    8098.4469    447.03428    2711.4605    3181.8839    1409.4654    154.26931    935.34291    17.795713    20.960998    21.710728           90           90           90 
   79500    275.19598   -126.31764   -95.619118   -126.31764            0    2535.8072    17.793116    20.957939    21.707559            0            0            0    8094.9015    2177.6834    2018.5143    3411.2238    345.35601    936.04461   -269.15592    17.793116    20.957939    21.707559           90           90           90 
   80000    260.40351   -124.58978   -95.541378   -124.58978            0    2503.5083    17.751118    20.908471    21.656322            0            0            0    8037.7168    191.28073    3162.9006    4156.3434    475.62771    3526.3475    273.80403    17.751118    20.908471    21.656322           90           90           90 
   80500    258.37806   -124.70503    -95.88257   -124.70503            0   -216.13344    17.862166    21.039271    21.791801            0            0            0    8189.5104   -456.51484   -513.52363    321.63816    348.55094    -1675.788    -427.8813    17.862166    21.039271    21.791801           90           90           90 
   81000    264.08387   -125.99058   -96.531623   -125.99058            0   -965.56883     17.84148    21.014906    21.766564            0            0            0    8161.0906   -2798.8973    227.25579   -325.06502   -892.29066    1195.1149    1003.3602     17.84148    21.014906    21.766564           90           90           90 
   81500    254.80033   -125.28366   -96.860297   -125.28366            0    1414.4143    17.793668     20.95859    21.708233            0            0            0    8095.6559    3106.1529    475.04501    662.04508   -1201.7289   -928.91735    700.59082    17.793668     20.95859    21.708233           90           90           90 
   82000     252.0417   -126.34455   -98.228923   -126.34455            0    1784.0361    17.912543    21.098609     21.85326            0            0            0    8258.9967     265.1948    1131.2148    3955.6986    1309.2165   -792.40823     11.44195    17.912543    21.098609     21.85326           90           90           90 
   82500    264.80489   -124.65835   -95.118966   -124.65835            0    543.92628    17.941286    21.132464    21.888327            0            0            0    8298.8185   -423.39569    1643.9807    411.19384   -1094.9201   -1122.9682   -1493.0101    17.941286    21.132464    21.888327           90           90           90 
   83000    273.24373   -126.53098   -96.050233   -126.53098            0    1584.8541    17.990354     21.19026    21.948189            0            0            0    8367.0949    770.59782    3364.8707     619.0938   -1371.7158    1804.6288   -1296.1249    17.990354     21.19026    21.948189           90           90           90 
   83500    266.94097   -126.72945   -96.951778   -126.72945            0    256.63446    17.898686    21.082287    21.836354            0            0            0    8239.8441    -953.8458   -290.12619    2013.8754   -48.838119   -627.25702    136.01632    17.898686    21.082287    21.836354           90           90           90 
   84000    269.13472   -125.42639   -95.404008   -125.42639            0   -172.02735    17.877708    21.057577    21.810761            0            0            0    8210.9058    1218.4543   -486.33341    -1248.203   -1306.1071   -1787.8168    401.21826    17.877708    21.057577    21.810761           90           90           90 
   84500    257.71104   -124.55826   -95.810208   -124.55826            0    1754.2746    17.990149    21.190019     21.94794            0            0            0    8366.8093    546.54608     1901.464    2814.8138   -22.248844    652.68347     2237.463    17.990149    21.190019     21.94794           90           90           90 
   85000    273.34037   -127.53509   -97.043564   -127.53509            0   -756.01924    17.905897    21.090781    21.845152            0            0            0    8249.8077   -738.88951    1455.2217   -2984.3899   -472.25781    825.77832    616.82569    17.905897    21.090781    21.845152           90           90           90 
   85500    269.87464   -126.06352     -95.9586   -126.06352            0     1970.469    17.843932    21.017794    21.769555            0            0            0    8164.4555    3056.7575    2233.7148    620.93463    -1775.354    571.62363     1581.867    17.843932    21.017794    21.769555           90           90           90 
   86000    260.04889   -126.38221   -97.373366   -126.38221            0   -380.47827    18.040666     21.24952     22.00957            0            0            0    8437.4893   -168.66486   -1160.4039    187.63395   -687.16518   -3026.2174    76.978111    18.040666     21.24952     22.00957           90           90           90 
   86500    259.38544   -127.11104   -98.176203   -127.11104            0     818.0682    17.958593     21.15285    21.909441            0            0            0    8322.8584    2754.9784    1185.6259   -1486.3997    -1977.889    515.87223    461.67856    17.958593     21.15285    21.909441           90           90           90 
   87000    251.95999   -127.23671   -99.130191   -127.23671            0    2491.0409    17.902771    21.087099    21.841339            0            0            0    8245.4878    2551.0039    432.08437    4490.0343    317.55167   -1151.9785    1988.7794    17.902771    21.087099    21.841339           90           90           90 
   87500    264.76889   -127.55856   -98.023193   -127.55856            0    3193.8919    17.964506    21.159814    21.916655            0            0            0    8331.0819    3649.2229    2112.5287    3819.9242   -99.778015   -464.80622    2267.4809    17.964506    21.159814    21.916655           90           90           90 
   88000    264.83707   -126.78199   -97.239015   -126.78199            0    1108.6018    18.051667    21.262478    22.022991            0            0            0    8452.9345    -187.9735    2577.2164    936.56236   -339.83583    1466.4916    2456.1061    18.051667    21.262478    22.022991           90           90           90 
   88500    255.80484   -126.67131   -98.135899   -126.67131            0    355.90062    17.974323    21.171377    21.928631            0            0            0     8344.747    664.44116   -396.31352    799.57421    142.54911   -1078.1111    567.50394    17.974323    21.171377    21.928631           90           90           90 
   89000    247.49318   -128.37131   -100.76308   -128.37131            0    1464.1522    18.013669    21.217722    21.976634            0            0            0    8399.6674    680.02432    3783.4158   -70.983524    -2448.032   -834.74222    398.29292    18.013669    21.217722    21.976634           90           90           90 
   89500    254.42176    -129.1427   -100.76157    -129.1427            0   -258.81276    17.987268    21.186625    21.944425            0            0            0    8362.7901    -1615.379    -814.4541    1653.3948   -2769.4169    -1050.077   -1096.4622    17.987268    21.186625    21.944425           90           90           90 
   90000    243.64174   -128.01762   -100.83902   -128.01762            0    1836.1889    17.876015    21.055583    21.808696            0            0            0    8208.5731    3080.4302    3274.5415   -846.40498     904.7172   -318.96016     1595.523    17.876015    21.055583    21.808696           90           90           90 
   90500     260.6801   -127.80616   -98.726905   -127.80616            0    2408.2516    17.933002    21.122706     21.87822            0            0            0    8287.3281    965.12637    2336.2047    3923.4236   -1901.2281    2022.9019    1452.8427    17.933002    21.122706     21.87822           90           90           90 
   91000    255.30346   -126.74108   -98.261595   -126.74108            0     1220.843    18.058547    21.270582    22.031385            0            0            0    8462.6033    3249.2515    1234.5184   -821.24089   -118.47385    11.056356    697.69923    18.058547    21.270582    22.031385           90           90           90 
   91500     243.9123   -128.29313   -101.08434   -128.29313            0    1595.4945     17.89657    21.079795    21.833773            0            0            0    8236.9224    3193.6289    1246.5016    346.35309   -261.24656    2953.7092    1231.3346     17.89657    21.079795    21.833773           90           90           90 
   92000    254.90391   -127.19396   -98.759047   -127.19396            0    542.14973    17.820855    20.990612    21.741401            0            0            0    8132.8203   -338.93625    2343.5228   -378.13739   -924.82991    1437.8454   -1681.0273    17.820855    20.990612    21.741401           90           90           90 
   92500    253.01851   -127.01421   -98.789611   -127.01421            0    2737.6585    17.864325    21.041815    21.794435            0            0            0    8192.4805    3618.1284    3000.4709    1594.3762   -802.84262    716.78866    1274.6683    17.864325    21.041815    21.794435           90           90           90 
   93000    256.43303   -127.09838   -98.492889   -127.09838            0   -518.37187    17.975803     21.17312    21.930437            0            0            0    8346.8081    1383.6527   -1010.3105   -1928.4578    1401.5199    556.04827    1532.6336    17.975803     21.17312    21.930437           90           90           90 
   93500    259.04963    -127.7181   -98.820721    -127.7181            0    1230.5432    18.020444    21.225702      21.9849            0            0            0    8409.1492    -1707.695    1472.2479    3927.0769    1004.4116    198.80835    -762.8083    18.020444    21.225702      21.9849           90           90           90 
   94000    260.09803   -128.00316   -98.988838   -128.00316            0    2110.4728    17.959691    21.154143     21.91078            0            0            0    8324.3844     33.90784     2636.633    3660.8776   -1673.9965    15.928654    191.68921    17.959691    21.154143     21.91078           90           90           90 
   94500    256.83854   -127.19526    -98.54453   -127.19526            0    825.25985    17.908295    21.093604    21.848077            0            0            0    8253.1216    2476.0845   -282.35173    282.04684    449.45412    1737.0807   -1391.8207    17.908295    21.093604    21.848077           90           90           90 
   95000    252.03435   -128.32139   -100.20658   -128.32139            0     311.8079    17.944459    21.136202    21.892198            0            0            0    8303.2226    626.04497     1075.897   -766.51829   -361.83538   -1961.6819    781.51368    17.944459    21.136202    21.892198           90           90           90 
   95500    252.80325   -126.36223   -98.161649   -126.36223            0   -28.108601    17.918438    21.105553    21.860453            0            0            0    8267.1542    508.53857   -2610.5762    2017.7118   -949.54328   -1040.8709   -517.15253    17.918438    21.105553    21.860453           90           90           90 
   96000    261.39874   -125.60261   -96.443187   -125.60261            0    1445.6186    17.974668    21.171784    21.929053            0            0            0    8345.2279    198.90898    2710.4198    1427.5271    2277.5471    180.03642    484.87936    17.974668    21.171784    21.929053           90           90           90 
   96500    264.78559   -126.29999   -96.762761   -126.29999            0   -1089.3508    17.875422    21.054885    21.807972            0            0            0    8207.7561   -3275.2262   -2025.0158    2032.1896    707.40913   -176.27105    -363.9276    17.875422    21.054885    21.807972           90           90           90 
   97000    260.16602   -126.14375   -97.121842   -126.14375            0    1189.8247    17.843868    21.017719    21.769477            0            0            0    8164.3682    1919.4182   -1775.1103    3425.1661    747.03979   -1260.1581   -861.30658    17.843868    21.017719    21.769477           90           90           90 
   97500    256.37921   -124.92751   -96.328026   -124.92751            0   -153.01478    17.859125    21.035689     21.78809            0            0            0     8185.328   -1462.0327    2892.4574   -1889.4691    1462.0745    730.71297   -857.82529    17.859125    21.035689     21.78809           90           90           90 
   98000    247.93668   -126.32942   -98.671712   -126.32942            0    3421.4237     17.87299    21.052021    21.805006            0            0            0    8204.4074    1844.7456    4969.0326     3450.493    1642.4819     991.2995    423.00264     17.87299    21.052021    21.805006           90           90           90 
   98500    264.04475   -126.76561   -97.311023   -126.76561            0   -1246.3858    17.863134    21.040411    21.792981            0            0            0     8190.841   -1330.4486   -2101.7424   -306.96643    870.02336   -24.621244   -1453.9021    17.863134    21.040411    21.792981           90           90           90 
   99000    252.26831    -126.6262   -98.485293    -126.6262            0    2911.8657    17.845429    21.019557    21.771381            0            0            0    8166.5105     1648.126    3254.0015    3833.4697    1053.6187    2022.6041   -1547.4003    17.845429    21.019557    21.771381           90           90           90 
   99500    259.01983   -125.05836   -96.164313   -125.05836            0      1286.77    17.840967    21.014302    21.765938            0            0            0    8160.3869    2578.3107    2715.1737   -1433.1743    225.34196    1090.9345    1933.5919    17.840967    21.014302    21.765938           90           90           90 
  100000    251.44855    -124.2432   -96.193735    -124.2432            0    2615.4059    17.819806    20.989377    21.740121            0            0            0    8131.3839   -1737.0174    4776.1251      4807.11    -1891.391    398.96056    372.87379    17.819806    20.989377    21.740121           90           90           90 
  100500     272.3623   -126.78712   -96.404694   -126.78712            0    40.517164    17.872536    21.051485    21.804451            0            0            0    8203.7814    1970.7744   -1105.2143   -744.00854    63.891022   -1320.4601    -240.2022    17.872536    21.051485    21.804451           90           90           90 
  101000    266.83761   -126.59646   -96.830327   -126.59646            0    134.25866    17.908352    21.093672    21.848147            0            0            0    8253.2012   -339.56286    637.22449    105.11435    -303.0723     1590.853    441.67563    17.908352    21.093672    21.848147           90           90           90 
  101500    254.75962   -125.71553   -97.296711   -125.71553            0    150.73648    17.939694    21.130588    21.886384            0            0            0    8296.6089    3472.7582   -2741.2272   -279.32162    2373.2393   -2123.6529    1109.6191    17.939694    21.130588    21.886384           90           90           90 
  102000    263.77615   -126.64197   -97.217342   -126.64197            0     4976.578    17.882207    21.062876     21.81625            0            0            0    8217.1058    5838.5661    2943.7222    6147.4456     310.0393    569.14956   -2597.0026    17.882207    21.062876     21.81625           90           90           90 
  102500    255.08996   -126.17409    -97.71842   -126.17409            0    970.36211    17.891357    21.073654    21.827413            0            0            0    8229.7263   -503.08121    1194.9457    2219.2219    150.45026    -1772.313    1577.3809    17.891357    21.073654    21.827413           90           90           90 
  103000    270.33781   -126.93542   -96.778834   -126.93542            0    197.02982    17.816076    20.984984    21.735571            0            0            0    8126.2793   -271.43466    690.79491    171.72922   -781.00022    2926.3733    2588.9685    17.816076    20.984984    21.735571           90           90           90 
  103500    250.79526   -125.98756   -98.010975   -125.98756            0   -903.75424    17.836306    21.008811    21.760251            0            0            0    8153.9922   -1475.7703    86.568603    -1322.061    168.07819    727.53648    510.73438    17.836306    21.008811    21.760251           90           90           90 
  104000    264.32677   -126.24921   -96.763159   -126.24921            0    997.23853    17.922575    21.110425    21.865499            0            0            0    8272.8814    1755.7888   -1557.0596    2792.9863    1402.3158   -1126.2513     1636.787    17.922575    21.110425    21.865499           90           90           90 
  104500    253.96582   -125.98872   -97.658455   -125.98872            0   -2056.7569    17.932594    21.122226    21.877723            0            0            0    8286.7631   -3905.5864    -3423.884    1159.1996    1041.6338   -2929.5423   -1013.7178    17.932594    21.122226    21.877723           90           90           90 
  105000    274.63781   -125.83262   -95.196359   -125.83262            0     1390.499    17.707085    20.856606    21.602602            0            0            0    7978.0503   -696.80521    -2200.717    7069.0193    28.190638   -902.52056    2265.9643    17.707085    20.856606    21.602602           90           90           90 
  105500     256.6472   -124.01458     -95.3852   -124.01458            0    1397.8007     17.75318      20.9109    21.658837            0            0            0    8040.5174    1430.0712     2563.408     199.9228   -1374.7307   -842.36369    76.962323     17.75318      20.9109    21.658837           90           90           90 
  106000    259.10392   -124.76852   -95.865084   -124.76852            0   -178.40973    17.773037    20.934289    21.683063            0            0            0    8067.5285   -547.95298    725.03121   -712.30741   -2251.6976    277.34773    759.63681    17.773037    20.934289    21.683063           90           90           90 
  106500    258.71539   -124.54446   -95.684366   -124.54446            0    1392.3055    17.825966    20.996632    21.747636            0            0            0     8139.819    513.17427    3752.9645   -89.222113    1689.7756    2299.2632   -60.036937    17.825966    20.996632    21.747636           90           90           90 
  107000    254.76609   -124.61945   -96.199908   -124.61945            0     20.07994    17.881302    21.061811    21.815146            0            0            0    8215.8585    2323.3235   -3626.6151    1363.5315   -861.14907    445.28471   -1303.0345    17.881302    21.061811    21.815146           90           90           90 
  107500    262.30152   -125.06251   -95.802382   -125.06251            0    1244.0352    17.912902    21.099031    21.853698            0            0            0    8259.4931    4922.7316    2302.5589   -3493.1848   -745.54285     928.6543    452.18061    17.912902    21.099031    21.853698           90           90           90 
  108000    254.22655   -123.05301   -94.693655   -123.05301            0    1655.5172    17.846824    21.021201    21.773083            0            0            0    8168.4265    842.75531    1223.5859    2900.2104    1354.4962    94.433469    898.28016    17.846824    21.021201    21.773083           90           90           90 
  108500    268.78851   -124.55644    -94.57268   -124.55644            0   -1491.4948    17.811347    20.979414    21.729802            0            0            0    8119.8103   -167.19874   -2198.9648    -2108.321    146.36109    2346.2493    608.23492    17.811347    20.979414    21.729802           90           90           90 
  109000    260.27636   -125.69636   -96.662138   -125.69636            0    2635.5951     17.84314    21.016862    21.768589            0            0            0    8163.3691    1763.8248    4471.9755    1670.9851   -1314.7174   -825.38106    1527.5242     17.84314    21.016862    21.768589           90           90           90 
  109500    253.61765   -123.78107   -95.489641   -123.78107            0    210.10114    17.871721    21.050525    21.803457            0            0            0    8202.6592    -1038.975   -812.32783    2481.6062   -2714.0133   -936.79195    1361.0729    17.871721    21.050525    21.803457           90           90           90 
  110000    249.98277    -124.0945   -96.208543    -124.0945            0    3373.2957     17.81622    20.985153    21.735747            0            0            0    8126.4764    4241.1309    2097.0761    3781.6801   -1285.2575     66.70862    1926.3069     17.81622    20.985153    21.735747           90           90           90 
  110500    250.87666    -126.1148    -98.12913    -126.1148            0    377.67699    17.870087    21.048601    21.801464            0            0            0    8200.4095   -357.58623    478.86115    1011.7561    3165.3582     -2339.05   -236.76563    17.870087    21.048601    21.801464           90           90           90 
  111000    250.61192   -123.73098   -95.774842   -123.73098            0    1012.2719    17.811796    20.979941    21.730348            0            0            0    8120.4232    714.30712    1145.6433    1176.8651   -1052.8346   -1460.4613    62.868651    17.811796    20.979941    21.730348           90           90           90 
  111500    262.58553   -124.29347   -95.001654   -124.29347            0   -316.75013    17.859434    21.036053    21.788467            0            0            0    8185.7526    778.34704   -762.00442   -966.59301   -2294.0694    1155.8913    1348.7312    17.859434    21.036053    21.788467           90           90           90 
[...]
 1973500     261.1606   -127.45058   -98.317724   -127.45058            0    2583.3053    17.828919     21.00011    21.751238            0            0            0     8143.865    1745.0547    2194.6224    3810.2387    1903.0418   -48.451389   -1884.6605    17.828919     21.00011    21.751238           90           90           90 
 1974000    254.17891    -127.4434   -99.089361    -127.4434            0   -17.158948    17.870889    21.049546    21.802442            0            0            0    8201.5138    345.08321   -51.649885   -344.91017    -3025.178    29.312578     1848.551    17.870889    21.049546    21.802442           90           90           90 
 1974500    268.51973    -129.1311   -99.177324    -129.1311            0    677.23256    17.853175    21.028681    21.780832            0            0            0    8177.1501   -264.61691    924.50651    1371.8081   -686.98806    2361.4081   -2654.5371    17.853175    21.028681    21.780832           90           90           90 
 1975000    251.25231   -128.33857   -100.31099   -128.33857            0     3386.058    17.659144    20.800138    21.544113            0            0            0    7913.4247    5912.4345    1551.3679    2694.3718   -516.69929   -1134.6447   -848.64985    17.659144    20.800138    21.544113           90           90           90 
 1975500    242.70459   -126.82462   -99.750558   -126.82462            0    3677.6765    17.788467    20.952463    21.701887            0            0            0    8088.5579    1752.0676    6017.1822    3263.7797    1326.4108    474.27179    2069.2228    17.788467    20.952463    21.701887           90           90           90 
 1976000    258.28294   -127.44888   -98.637028   -127.44888            0    976.09276    17.865775    21.043522    21.796203            0            0            0    8194.4753    2443.4263    1871.8114   -1386.9593   -197.85006    1049.1484    1475.2713    17.865775    21.043522    21.796203           90           90           90 
 1976500    260.42067   -127.24039   -98.190072   -127.24039            0   -570.29513    17.759509    20.918355    21.666559            0            0            0    8049.1202   -3241.5028    -2832.043    4362.6604   -115.83169   -1760.3678   -1638.3123    17.759509    20.918355    21.666559           90           90           90 
 1977000    264.42159   -128.02608   -98.529458   -128.02608            0    1556.9441    17.722004    20.874179    21.620803            0            0            0     7998.233   -2325.7423    6607.9671    388.60748    1428.2439     1616.043    158.73585    17.722004    20.874179    21.620803           90           90           90 
 1977500    268.21189   -127.70836   -97.788921   -127.70836            0    3463.4399    17.836547    21.009095    21.760545            0            0            0    8154.3226    5369.8124    1087.5312     3932.976   -953.58806   -212.85324    997.33122    17.836547    21.009095    21.760545           90           90           90 
 1978000    262.34792   -126.89034   -97.625038   -126.89034            0    2702.5416    17.809617    20.977376    21.727691            0            0            0    8117.4446    5820.7472    2877.9316   -591.05408    511.35608    170.00401    811.87029    17.809617    20.977376    21.727691           90           90           90 
 1978500     263.7578   -127.70303   -98.280449   -127.70303            0   -593.15548    17.814643    20.983295    21.733822            0            0            0    8124.3181    1157.2537   -2665.8192     -270.901   -1837.6206   -507.10622    1972.0286    17.814643    20.983295    21.733822           90           90           90 
 1979000    250.22652   -126.43281   -98.519662   -126.43281            0    1384.1926    17.757484    20.915969    21.664088            0            0            0    8046.3671    2360.3037    849.57859     942.6955    580.76297   -1158.6318    -1423.384    17.757484    20.915969    21.664088           90           90           90 
 1979500    256.65378   -124.99829   -96.368179   -124.99829            0    632.84116    17.772348    20.933477    21.682222            0            0            0    8066.5899    874.28865   -1877.3728    2901.6076   -2316.0219   -83.629023   -1709.8107    17.772348    20.933477    21.682222           90           90           90 
 1980000    254.17445   -125.59054   -97.237002   -125.59054            0    3733.3118    17.866062     21.04386    21.796553            0            0            0    8194.8696    5112.3516    496.40252    5591.1814   -532.89263   -1156.0441     -1199.97    17.866062     21.04386    21.796553           90           90           90 
 1980500    257.04718   -126.50212   -97.828122   -126.50212            0   -130.76566    17.836856     21.00946    21.760923            0            0            0    8154.7473    2245.5312   -672.93618    -1964.892   -2816.8996    1123.0587    1608.8907    17.836856     21.00946    21.760923           90           90           90 
 1981000    269.13462   -127.06789   -97.045519   -127.06789            0    2874.3483    17.735477    20.890048     21.63724            0            0            0    8016.4881    3948.9144    1036.0557    3638.0748   -1801.6747   -158.04681    706.93714    17.735477    20.890048     21.63724           90           90           90 
 1981500    259.48836    -126.6195   -97.673185    -126.6195            0   -990.64671    17.849143    21.023932    21.775913            0            0            0     8171.611   -65.119225     78.14806    -2984.969   -1187.8664    2007.3358    34.172621    17.849143    21.023932    21.775913           90           90           90 
 1982000    274.49207   -127.59699   -96.976982   -127.59699            0    244.81245    17.910946    21.096728    21.851312            0            0            0     8256.788    3601.8623   -1724.8498   -1142.5751   -610.02891   -197.38383   -1346.0858    17.910946    21.096728    21.851312           90           90           90 
 1982500    259.95012   -127.42989   -98.432066   -127.42989            0    2433.6789    17.790538    20.954903    21.704415            0            0            0    8091.3844    6707.0609     2189.419   -1595.4433    -3193.921   -1152.4051   -946.63472    17.790538    20.954903    21.704415           90           90           90 
 1983000    259.84809   -126.97946    -97.99301   -126.97946            0    1543.5221    17.846238     21.02051    21.772368            0            0            0    8167.6212   -1319.9681    2727.6015    3222.9329    -1708.364    -1497.658   -53.319426    17.846238     21.02051    21.772368           90           90           90 
 1983500    257.10939   -127.25894   -98.578004   -127.25894            0     94.96153    17.865378    21.043054    21.795719            0            0            0    8193.9286    3829.9221   -2353.2409   -1191.7966    2918.2541    1677.3768   -156.02444    17.865378    21.043054    21.795719           90           90           90 
 1984000    265.01956   -128.37472   -98.811386   -128.37472            0    525.77152    17.778395      20.9406      21.6896            0            0            0    8074.8272    4908.1676   -136.87993   -3193.9731   -2299.8776   -2511.3262    561.64484    17.778395      20.9406      21.6896           90           90           90 
 1984500    270.02456   -126.57502   -96.453377   -126.57502            0    1568.0342     17.81429     20.98288    21.733392            0            0            0    8123.8353       742.84    4012.1251   -50.862577   -803.25195   -4085.3123    986.48409     17.81429     20.98288    21.733392           90           90           90 
 1985000    295.40902   -129.13222   -96.178899   -129.13222            0    1482.2834    17.897024    21.080329    21.834327            0            0            0    8237.5488   -712.20759    -116.2513    5275.3091    1165.2079   -587.20168   -1488.5952    17.897024    21.080329    21.834327           90           90           90 
 1985500    261.33909   -126.30273   -97.149962   -126.30273            0   -1637.0568    17.919946    21.107329    21.862292            0            0            0    8269.2414   -3321.4413   -1603.9174    14.188388   -1321.1698    1064.6533    1027.1355    17.919946    21.107329    21.862292           90           90           90 
 1986000    268.83917   -129.01035   -99.020932   -129.01035            0     1210.125    17.876645    21.056326    21.809465            0            0            0    8209.4414    2386.2052    1893.5378   -649.36778    46.457202   -52.036037     1796.837    17.876645    21.056326    21.809465           90           90           90 
 1986500    256.94416   -126.13426   -97.471752   -126.13426            0    -318.4474    17.968654    21.164699    21.921715            0            0            0    8336.8534   -436.82343   -536.96256    18.443796   -2453.8264     -1507.57   -353.74583    17.968654    21.164699    21.921715           90           90           90 
 1987000     260.2605   -127.27524   -98.242791   -127.27524            0    4999.5238    17.892278    21.074739    21.828536            0            0            0     8230.997     7076.712    5205.9082    2715.9513   -801.87082   -493.68975   -2982.6734    17.892278    21.074739    21.828536           90           90           90 
 1987500    256.72336   -128.51366   -99.875782   -128.51366            0   -548.19498    17.972773    21.169552    21.926741            0            0            0    8342.5889   -480.94464   -2448.3631    1284.7228     339.2203    -2933.928    1330.2208    17.972773    21.169552    21.926741           90           90           90 
 1988000    267.42595   -124.32868   -94.496911   -124.32868            0    4345.0342    17.932345    21.121933    21.877419            0            0            0    8286.4182    4759.4327    4381.3105    3894.3593   -856.88529    51.402981   -968.23287    17.932345    21.121933    21.877419           90           90           90 
 1988500    279.67794   -127.07522   -95.876721   -127.07522            0   -8.5358456    17.896966    21.080261    21.834256            0            0            0    8237.4687    1868.9395    160.14186   -2054.6889   -632.91021   -951.73685   -1130.4584    17.896966    21.080261    21.834256           90           90           90 
 1989000    254.93225   -127.70135   -99.263278   -127.70135            0   -3117.0251    17.887456    21.069059    21.822654            0            0            0    8224.3441   -1898.5689    -6341.935   -1110.5713   -21.143356    580.94372   -9.6975287    17.887456    21.069059    21.822654           90           90           90 
 1989500    256.91037   -128.57944   -99.920702   -128.57944            0    3211.7203    17.930956    21.120297    21.875724            0            0            0    8284.4928    4918.5804    347.98005    4368.6005   -2886.6197   -1012.9535   -266.46274    17.930956    21.120297    21.875724           90           90           90 
 1990000    254.06498   -128.03058   -99.689251   -128.03058            0    1482.5528    17.956293     21.15014    21.906634            0            0            0    8319.6599   -63.843759   -1017.1432    5528.6452   -2412.8597    1630.6417   -92.224313    17.956293     21.15014    21.906634           90           90           90 
 1990500    259.32754    -128.8762   -99.947824    -128.8762            0     1852.521    17.913396    21.099614    21.854301            0            0            0    8260.1769    2598.2765   -446.22669    3405.5133   -2091.9438    532.01674    1879.2269    17.913396    21.099614    21.854301           90           90           90 
 1991000    251.05394   -130.30685    -102.3014   -130.30685            0    1115.4687    17.929028    21.118026    21.873372            0            0            0    8281.8201   -177.73192    584.46869    2939.6694   -1790.3846    2156.2182   -2075.7927    17.929028    21.118026    21.873372           90           90           90 
 1991500    261.11715    -127.4501   -98.322085    -127.4501            0    3859.5274    17.945688    21.137649    21.893697            0            0            0    8304.9283    3240.2215    4099.1754    4239.1852   -140.85136    1733.4926   -2042.5423    17.945688    21.137649    21.893697           90           90           90 
 1992000     252.4843   -128.46795   -100.30295   -128.46795            0    930.99086     17.98714    21.186474    21.944269            0            0            0    8362.6117    703.93428    11.468596    2077.5697   -2538.0327   -2133.5938    1111.3073     17.98714    21.186474    21.944269           90           90           90 
 1992500    256.70495   -128.39272   -99.756901   -128.39272            0    2259.8349    17.905751    21.090609    21.844974            0            0            0    8249.6056    2323.1432    3286.9033    1169.4583    1516.2437     598.5213   -1314.5477    17.905751    21.090609    21.844974           90           90           90 
 1993000    258.14719   -129.12944   -100.33274   -129.12944            0     3171.105    17.863138    21.040416    21.792986            0            0            0    8190.8475    1698.7562    4323.2862    3491.2728   -2720.4982   -1097.8164   -2802.2138    17.863138    21.040416    21.792986           90           90           90 
 1993500     266.0512   -130.32124   -100.64282   -130.32124            0    2453.9721    17.921674    21.109364      21.8644            0            0            0    8271.6335    1690.0678    524.84944    5146.9989    -652.8245   -1238.7342    880.63553    17.921674    21.109364      21.8644           90           90           90 
 1994000    259.65334   -128.24357   -99.278851   -128.24357            0    1187.4306    17.948575     21.14105    21.897219            0            0            0    8308.9375    3498.1043   -10.165079    74.352419   -1538.7891   -339.15129    441.51079    17.948575     21.14105    21.897219           90           90           90 
 1994500    251.95547   -128.07563   -99.969615   -128.07563            0   -6.4386795    17.851165    21.026313    21.778379            0            0            0    8174.3877   -590.73767   -1249.9419    1821.3635    189.65985   -67.114947    581.05907    17.851165    21.026313    21.778379           90           90           90 
 1995000    266.60432   -130.15884   -100.41873   -130.15884            0    3101.1167    17.806021     20.97314    21.723303            0            0            0    8112.5278   -455.02358    4170.4502    5587.9236   -2271.9094    1369.8873    604.49264    17.806021     20.97314    21.723303           90           90           90 
 1995500    258.29738   -130.20663   -101.39317   -130.20663            0   -178.13373    17.879318    21.059474    21.812726            0            0            0    8213.1248   -2378.7008    1056.2669    788.03275    634.70742     1717.504    35.597766    17.879318    21.059474    21.812726           90           90           90 
 1996000    255.80336   -127.90473   -99.369475   -127.90473            0      3707.23    17.759082    20.917852    21.666038            0            0            0    8048.5397     3580.229     3404.992    4136.4691   -2235.7592    1448.8442   -208.83496    17.759082    20.917852    21.666038           90           90           90 
 1996500    256.67603   -127.05153   -98.418933   -127.05153            0   -3896.6105    17.851453    21.026653    21.778731            0            0            0    8174.7838   -4147.1979   -5358.0741   -2184.5596   -456.88564    1137.7986    427.23121    17.851453    21.026653    21.778731           90           90           90 
 1997000    259.48753   -127.76212   -98.815897   -127.76212            0    14.180954     17.84409    21.017981    21.769748            0            0            0    8164.6732   -847.35757   -199.21243    1089.1129     621.3103   -1340.6123   -860.78955     17.84409    21.017981    21.769748           90           90           90 
 1997500    258.04545   -127.67906   -98.893706   -127.67906            0   -1634.5826    17.729766    20.883322    21.630273            0            0            0    8008.7472   -3739.8794   -2238.2154    1074.3469   -394.02369   -2160.3241   -3014.5434    17.729766    20.883322    21.630273           90           90           90 
 1998000    253.01366   -128.40164   -100.17759   -128.40164            0   -827.73076    17.762885    20.922332    21.670678            0            0            0     8053.712   -4324.6719   -359.05424    2200.5339    369.36542    1794.1129   -2304.5269    17.762885    20.922332    21.670678           90           90           90 
 1998500      250.777   -127.08467   -99.110117   -127.08467            0    2569.4238    17.749937     20.90708    21.654881            0            0            0     8036.112    2051.5405    1833.9086    3822.8223   -323.89782   -1822.8098   -2986.2932    17.749937     20.90708    21.654881           90           90           90 
 1999000    256.63422   -128.45954   -99.831611   -128.45954            0    2472.4129    17.751322    20.908712    21.656571            0            0            0    8037.9941    1104.0841    2525.4814    3787.6732   -272.62666    368.26814     1266.347    17.751322    20.908712    21.656571           90           90           90 
 1999500     262.4812   -127.76515   -98.484979   -127.76515            0     990.4045    17.866449    21.044317    21.797026            0            0            0    8195.4032    3392.8821   -934.43524    512.76661    1677.3466    751.69289     884.5313    17.866449    21.044317    21.797026           90           90           90 
 2000000    262.09892   -126.87652   -97.638992   -126.87652            0    2686.9834    17.823158    20.993325    21.744211            0            0            0    8135.9738    1766.6201    4480.0788    1814.2512    2250.7817   -436.18644   -241.74194    17.823158    20.993325    21.744211           90           90           90 
Loop time of 10887.2 on 1 procs for 2000000 steps with 864 atoms

Performance: 7.936 ns/day, 3.024 hours/ns, 183.701 timesteps/s
73.7% CPU use with 1 MPI tasks x 1 OpenMP threads

MPI task timing breakdown:
Section |  min time  |  avg time  |  max time  |%varavg| %total
---------------------------------------------------------------
Pair    | 9465.4     | 9465.4     | 9465.4     |   0.0 | 86.94
Bond    | 0.32239    | 0.32239    | 0.32239    |   0.0 |  0.00
Neigh   | 1295.3     | 1295.3     | 1295.3     |   0.0 | 11.90
Comm    | 44.744     | 44.744     | 44.744     |   0.0 |  0.41
Output  | 9.5516     | 9.5516     | 9.5516     |   0.0 |  0.09
Modify  | 63.157     | 63.157     | 63.157     |   0.0 |  0.58
Other   |            | 8.732      |            |       |  0.08

Nlocal:        864.000 ave         864 max         864 min
Histogram: 1 0 0 0 0 0 0 0 0 0
Nghost:        4161.00 ave        4161 max        4161 min
Histogram: 1 0 0 0 0 0 0 0 0 0
Neighs:         0.00000 ave           0 max           0 min
Histogram: 1 0 0 0 0 0 0 0 0 0
FullNghs:      196488.0 ave      196488 max      196488 min
Histogram: 1 0 0 0 0 0 0 0 0 0

Total # of neighbors = 196488
Ave neighs/atom = 227.41667
Ave special neighs/atom = 0.0000000
Neighbor list builds = 200000
Dangerous builds not checked

unfix		3
unfix		2

write_data	data.final.${pid}
write_data	data.final.0
System init for write_data ...

write_restart   restart.lmp.${pid}
write_restart   restart.lmp.0
System init for write_restart ...
Unloading pair style deepmd
Unloading compute style deepmd
Unloading fix style deepmd
Total wall time: 3:02:45
