LAMMPS data file via MDAnalysis

        1728  atoms
           0  bonds
           0  angles
           0  dihedrals
           0  impropers

           2  atom types
           0  bond types
           0  angle types
           0  dihedral types
           0  improper types

0.000000 17.857000 xlo xhi
0.000000 45.801891 ylo yhi
0.000000 21.785999 zlo zhi


Masses

1 15.999400
2 1.007940

Atoms

1 0 1 -1.179400 1.232644 2.293128 1.936365
2 0 2 0.589700 0.417941 2.004598 2.311385
3 0 2 0.589700 1.257940 3.235377 2.099602
4 0 1 -1.179400 3.094749 6.483585 20.444624
5 0 2 0.589700 3.888946 6.197677 20.026278
6 0 2 0.589700 2.932810 7.355639 20.092659
7 0 1 -1.179400 7.582193 9.507577 16.667120
8 0 2 0.589700 7.674132 9.527167 17.602150
9 0 2 0.589700 6.726398 9.870205 16.506958
10 0 1 -1.179400 3.475225 6.594723 6.214455
11 0 2 0.589700 2.648613 6.183104 6.019324
12 0 2 0.589700 3.400815 7.479668 5.864183
13 0 1 -1.179400 0.219735 10.290941 8.697606
14 0 2 0.589700 0.264231 11.146805 9.115974
15 0 2 0.589700 0.965838 9.814828 9.028075
16 0 1 -1.179400 3.061088 14.805681 6.164830
17 0 2 0.589700 3.023121 14.777188 7.103374
18 0 2 0.589700 3.751410 14.197406 5.938988
19 0 1 -1.179400 1.097461 2.050085 21.025219
20 0 2 0.589700 1.164808 2.147669 0.184486
21 0 2 0.589700 1.209818 2.937007 20.690191
22 0 1 -1.179400 9.640353 13.224780 16.880444
23 0 2 0.589700 10.382310 13.753332 16.626312
24 0 2 0.589700 9.682651 13.196817 17.818817
25 0 1 -1.179400 0.670590 20.730234 20.052052
26 0 2 0.589700 0.706363 20.912443 19.130207
27 0 2 0.589700 0.338360 19.836634 20.109108
28 0 1 -1.179400 5.330909 2.487476 1.566647
29 0 2 0.589700 4.791249 1.891174 2.066431
30 0 2 0.589700 5.294958 3.315308 2.036980
31 0 1 -1.179400 7.146571 22.310419 6.479798
32 0 2 0.589700 7.917552 22.206215 5.951033
33 0 2 0.589700 6.485178 21.804647 6.032484
34 0 1 -1.179400 0.589218 2.308497 9.295164
35 0 2 0.589700 0.659557 3.218420 9.578120
36 0 2 0.589700 1.461404 1.959623 9.377807
37 0 1 -1.179400 2.473145 22.310049 8.305634
38 0 2 0.589700 1.686150 22.025229 8.738023
39 0 2 0.589700 3.160954 22.111471 8.916450
40 0 1 -1.179400 7.883466 1.195594 19.769798
41 0 2 0.589700 7.104641 1.634582 20.073400
42 0 2 0.589700 7.573776 46.186214 19.378656
43 0 1 -1.179400 0.667023 10.664864 1.628996
44 0 2 0.589700 1.459837 10.312597 1.998286
45 0 2 0.589700 0.550447 11.509381 2.055671
46 0 1 -1.179400 14.278709 20.841383 19.265453
47 0 2 0.589700 14.967915 21.248112 19.765175
48 0 2 0.589700 13.498132 21.297642 19.538479
49 0 1 -1.179400 7.331100 14.229675 15.808895
50 0 2 0.589700 7.337538 15.099424 16.201164
51 0 2 0.589700 8.079782 13.787617 16.177000
52 0 1 -1.179400 0.181307 13.248965 17.137884
53 0 2 0.589700 0.329625 13.378492 18.057102
54 0 2 0.589700 17.325838 13.827987 16.934425
55 0 1 -1.179400 13.719170 13.570035 2.629846
56 0 2 0.589700 13.754913 13.390532 3.552207
57 0 2 0.589700 13.953298 12.739754 2.225001
58 0 1 -1.179400 9.515429 12.876957 9.479615
59 0 2 0.589700 8.676106 13.236013 9.242978
60 0 2 0.589700 9.545646 12.950622 10.416067
61 0 1 -1.179400 11.410477 21.846897 1.311994
62 0 2 0.589700 12.237103 21.473021 1.570110
63 0 2 0.589700 11.431719 22.744001 1.638911
64 0 1 -1.179400 7.580258 9.082586 1.873130
65 0 2 0.589700 7.692071 8.156212 1.664799
66 0 2 0.589700 7.591128 9.112774 2.812325
67 0 1 -1.179400 9.732859 13.102283 12.297811
68 0 2 0.589700 9.897923 12.221124 12.625648
69 0 2 0.589700 10.465507 13.620173 12.596194
70 0 1 -1.179400 5.769632 2.263826 16.200844
71 0 2 0.589700 5.634647 2.359369 15.275583
72 0 2 0.589700 5.045875 1.729155 16.492258
73 0 1 -1.179400 13.965815 18.381996 20.641045
74 0 2 0.589700 14.191264 19.191471 20.192978
75 0 2 0.589700 13.153298 18.108376 20.250818
76 0 1 -1.179400 10.108929 2.849282 13.153174
77 0 2 0.589700 10.214473 3.641654 12.636675
78 0 2 0.589700 10.264853 3.135164 14.036378
79 0 1 -1.179400 2.808065 21.248434 0.146814
80 0 2 0.589700 2.113363 21.037571 21.321012
81 0 2 0.589700 3.260894 21.980322 21.517241
82 0 1 -1.179400 5.321908 2.459624 5.890867
83 0 2 0.589700 4.615125 1.831745 5.959435
84 0 2 0.589700 6.060239 1.934530 5.619858
85 0 1 -1.179400 7.060737 22.152380 9.162855
86 0 2 0.589700 7.075874 22.301088 8.234663
87 0 2 0.589700 7.904153 21.777269 9.357183
88 0 1 -1.179400 4.499055 21.190281 12.328079
89 0 2 0.589700 4.590560 21.254017 11.394906
90 0 2 0.589700 4.740279 20.288176 12.529552
91 0 1 -1.179400 12.388290 9.364050 2.138733
92 0 2 0.589700 12.240480 9.220439 3.056014
93 0 2 0.589700 11.650237 9.883749 1.857141
94 0 1 -1.179400 0.198087 21.301229 9.431567
95 0 2 0.589700 17.303989 21.771494 9.124402
96 0 2 0.589700 0.052329 21.194180 10.353975
97 0 1 -1.179400 16.413921 9.270041 16.803507
98 0 2 0.589700 16.463352 8.369617 16.488647
99 0 2 0.589700 15.565623 9.576166 16.529964
100 0 1 -1.179400 4.772842 18.367496 8.755699
101 0 2 0.589700 5.451382 17.722010 8.904442
102 0 2 0.589700 4.898169 18.646929 7.865672
103 0 1 -1.179400 10.158746 10.488544 13.142528
104 0 2 0.589700 9.451931 9.902081 12.912021
105 0 2 0.589700 10.165126 10.489065 14.082230
106 0 1 -1.179400 12.149931 1.125842 2.301788
107 0 2 0.589700 12.121854 1.248402 3.233353
108 0 2 0.589700 11.313347 1.437214 1.999476
109 0 1 -1.179400 14.408120 5.089295 2.014620
110 0 2 0.589700 13.809737 5.613844 1.504101
111 0 2 0.589700 15.192434 5.616464 2.053261
112 0 1 -1.179400 1.105946 5.212976 9.631815
113 0 2 0.589700 0.909326 5.314122 10.545408
114 0 2 0.589700 1.920635 5.676662 9.514913
115 0 1 -1.179400 9.797050 13.100100 19.551098
116 0 2 0.589700 10.386359 13.744420 19.920473
117 0 2 0.589700 8.939331 13.439157 19.746820
118 0 1 -1.179400 14.107695 21.416693 2.033781
119 0 2 0.589700 14.015856 21.597805 2.951960
120 0 2 0.589700 14.722720 22.071379 1.729542
121 0 1 -1.179400 3.209275 9.438728 2.561645
122 0 2 0.589700 3.356688 9.452738 3.489661
123 0 2 0.589700 2.917553 8.547282 2.382272
124 0 1 -1.179400 4.926214 13.152800 16.637371
125 0 2 0.589700 4.994598 13.321796 17.559807
126 0 2 0.589700 5.699019 13.550272 16.269999
127 0 1 -1.179400 9.647605 20.918901 19.471550
128 0 2 0.589700 8.963409 21.477627 19.810879
129 0 2 0.589700 10.444094 21.364111 19.714680
130 0 1 -1.179400 15.846129 22.935637 8.591708
131 0 2 0.589700 15.817149 23.840216 8.897508
132 0 2 0.589700 15.007895 22.571968 8.825378
133 0 1 -1.179400 1.279469 2.438978 15.920848
134 0 2 0.589700 1.038333 3.252479 16.353472
135 0 2 0.589700 0.541703 1.859552 16.049049
136 0 1 -1.179400 5.335881 5.010595 2.751559
137 0 2 0.589700 5.366200 5.124332 3.684135
138 0 2 0.589700 4.645704 5.593442 2.468014
139 0 1 -1.179400 7.638504 9.209000 19.330435
140 0 2 0.589700 6.955331 9.607403 19.844679
141 0 2 0.589700 7.714347 8.318160 19.665670
142 0 1 -1.179400 5.470822 5.093466 19.651972
143 0 2 0.589700 5.501336 4.197857 19.982098
144 0 2 0.589700 5.516654 4.994547 18.718401
145 0 1 -1.179400 8.134013 6.770269 5.531461
146 0 2 0.589700 7.341295 6.260225 5.458043
147 0 2 0.589700 8.236870 6.917336 6.454328
148 0 1 -1.179400 15.752695 14.341571 16.300140
149 0 2 0.589700 15.675028 15.242987 16.606441
150 0 2 0.589700 15.764621 14.418007 15.363494
151 0 1 -1.179400 14.369741 10.654096 20.719154
152 0 2 0.589700 14.444408 10.743875 21.651758
153 0 2 0.589700 14.336637 11.554048 20.400888
154 0 1 -1.179400 9.583396 13.142682 2.140492
155 0 2 0.589700 10.372498 13.615160 1.924446
156 0 2 0.589700 9.658983 12.309444 1.684257
157 0 1 -1.179400 6.976510 16.871370 19.559677
158 0 2 0.589700 7.662551 17.433657 19.889475
159 0 2 0.589700 7.121574 16.844423 18.631567
160 0 1 -1.179400 7.860468 6.649238 20.328701
161 0 2 0.589700 7.319529 6.073413 19.807602
162 0 2 0.589700 7.593541 6.476746 21.213755
163 0 1 -1.179400 10.273900 5.427968 4.799915
164 0 2 0.589700 10.996291 5.865429 5.221800
165 0 2 0.589700 9.515938 5.917789 5.080360
166 0 1 -1.179400 3.303681 44.954948 8.581407
167 0 2 0.589700 2.508175 44.451977 8.492638
168 0 2 0.589700 3.663611 44.671825 9.403940
169 0 1 -1.179400 11.178515 22.407763 5.372159
170 0 2 0.589700 12.035213 22.246908 5.017301
171 0 2 0.589700 11.019374 23.336035 5.207181
172 0 1 -1.179400 5.112336 12.785932 2.374849
173 0 2 0.589700 4.391967 13.147939 1.885928
174 0 2 0.589700 5.192039 11.885039 2.067566
175 0 1 -1.179400 9.694254 3.128823 8.288998
176 0 2 0.589700 8.907767 2.662995 8.527330
177 0 2 0.589700 9.725562 3.069638 7.351594
178 0 1 -1.179400 16.234159 14.479310 1.997593
179 0 2 0.589700 15.431659 14.065193 2.271959
180 0 2 0.589700 16.094328 15.414210 2.142766
181 0 1 -1.179400 1.207596 5.330566 5.417506
182 0 2 0.589700 0.419856 5.798544 5.647499
183 0 2 0.589700 1.075391 4.443082 5.743757
184 0 1 -1.179400 7.020278 16.674973 9.394356
185 0 2 0.589700 7.818970 17.140753 9.200605
186 0 2 0.589700 7.210816 15.759137 9.198465
187 0 1 -1.179400 4.943233 20.718386 1.894816
188 0 2 0.589700 5.618798 21.341904 1.664572
189 0 2 0.589700 4.260397 20.875216 1.266961
190 0 1 -1.179400 12.309249 6.715405 1.230019
191 0 2 0.589700 12.289711 6.836013 0.297989
192 0 2 0.589700 12.338815 7.604086 1.577803
193 0 1 -1.179400 16.295502 9.376804 12.505966
194 0 2 0.589700 16.231144 8.480807 12.830171
195 0 2 0.589700 16.220755 9.288581 11.573224
196 0 1 -1.179400 16.123215 6.897894 13.186511
197 0 2 0.589700 16.883640 6.443814 12.858733
198 0 2 0.589700 15.396400 6.420682 12.816996
199 0 1 -1.179400 5.040828 12.987047 5.236770
200 0 2 0.589700 4.913500 12.781953 4.327726
201 0 2 0.589700 5.908475 13.354620 5.279144
202 0 1 -1.179400 15.872564 17.091648 16.959618
203 0 2 0.589700 16.583630 17.525991 16.515993
204 0 2 0.589700 15.117339 17.621387 16.750950
205 0 1 -1.179400 16.422781 14.632353 5.938134
206 0 2 0.589700 16.581217 15.483457 5.538383
207 0 2 0.589700 16.233482 14.836698 6.836512
208 0 1 -1.179400 12.727001 1.770335 17.002821
209 0 2 0.589700 11.924017 2.127895 16.661398
210 0 2 0.589700 12.570918 1.678833 17.925161
211 0 1 -1.179400 11.635082 14.568853 8.476845
212 0 2 0.589700 10.955813 14.013629 8.831245
213 0 2 0.589700 11.424674 15.449368 8.779468
214 0 1 -1.179400 14.526112 2.382060 1.617102
215 0 2 0.589700 13.667777 2.102685 1.886968
216 0 2 0.589700 14.492088 3.338225 1.642861
217 0 1 -1.179400 5.306500 10.401011 1.188348
218 0 2 0.589700 6.111608 9.914932 1.281329
219 0 2 0.589700 4.652240 9.825253 1.557791
220 0 1 -1.179400 14.766078 4.896610 19.535563
221 0 2 0.589700 13.974860 5.211674 19.939081
222 0 2 0.589700 15.455881 5.344712 19.999041
223 0 1 -1.179400 3.127113 6.259769 16.338810
224 0 2 0.589700 3.073471 7.182018 16.584490
225 0 2 0.589700 3.187907 6.273506 15.401145
226 0 1 -1.179400 5.293595 18.108707 1.058825
227 0 2 0.589700 4.585296 17.666672 1.499535
228 0 2 0.589700 5.313150 18.985415 1.435413
229 0 1 -1.179400 11.859511 9.287558 4.655640
230 0 2 0.589700 12.044820 8.465860 5.100613
231 0 2 0.589700 12.613256 9.835364 4.820001
232 0 1 -1.179400 2.793742 14.665415 13.197085
233 0 2 0.589700 3.560437 14.164023 12.964034
234 0 2 0.589700 2.848903 14.760715 14.130516
235 0 1 -1.179400 17.060020 0.740183 16.246531
236 0 2 0.589700 16.375664 1.362718 16.040949
237 0 2 0.589700 17.183258 46.042061 15.454738
238 0 1 -1.179400 3.099697 17.254229 5.457006
239 0 2 0.589700 3.081824 16.338259 5.729108
240 0 2 0.589700 3.953016 17.565321 5.708685
241 0 1 -1.179400 13.788305 13.264281 9.449557
242 0 2 0.589700 13.794235 13.376795 10.382750
243 0 2 0.589700 13.119686 13.862984 9.146959
244 0 1 -1.179400 9.901403 10.642212 15.797699
245 0 2 0.589700 9.682000 11.496969 16.159372
246 0 2 0.589700 9.140617 10.102360 15.954911
247 0 1 -1.179400 5.007713 21.237080 4.712839
248 0 2 0.589700 4.223508 21.721539 4.920949
249 0 2 0.589700 4.876856 20.937120 3.830077
250 0 1 -1.179400 15.751489 23.020269 15.614415
251 0 2 0.589700 15.868458 22.801983 14.706945
252 0 2 0.589700 15.669140 23.973663 15.626752
253 0 1 -1.179400 3.201468 6.776799 1.719343
254 0 2 0.589700 3.175507 6.659438 0.787068
255 0 2 0.589700 2.470560 6.269460 2.038702
256 0 1 -1.179400 2.371022 9.216485 9.841743
257 0 2 0.589700 2.693883 8.345179 9.624242
258 0 2 0.589700 3.020503 9.816914 9.503011
259 0 1 -1.179400 0.737734 10.559320 13.514572
260 0 2 0.589700 17.805929 10.179131 13.183484
261 0 2 0.589700 0.646566 10.517178 14.448956
262 0 1 -1.179400 16.722099 6.428148 20.564079
263 0 2 0.589700 17.441755 5.947707 20.184748
264 0 2 0.589700 16.676554 7.240712 20.069534
265 0 1 -1.179400 6.987386 22.341627 1.345302
266 0 2 0.589700 7.339615 23.226032 1.418488
267 0 2 0.589700 7.621238 21.783958 1.772481
268 0 1 -1.179400 7.448430 16.889585 12.137399
269 0 2 0.589700 7.194398 16.715141 11.248935
270 0 2 0.589700 7.467514 16.027081 12.544392
271 0 1 -1.179400 12.399601 1.498987 19.551466
272 0 2 0.589700 13.248186 1.728894 19.888691
273 0 2 0.589700 11.802132 2.056043 20.028788
274 0 1 -1.179400 5.593936 2.878903 8.688749
275 0 2 0.589700 5.741679 2.836359 7.761624
276 0 2 0.589700 6.237844 2.289757 9.055987
277 0 1 -1.179400 5.567254 5.047133 16.768045
278 0 2 0.589700 5.507303 4.138152 16.479837
279 0 2 0.589700 4.697861 5.395373 16.657999
280 0 1 -1.179400 11.789785 8.890969 16.912798
281 0 2 0.589700 11.855604 8.975746 17.846516
282 0 2 0.589700 11.100455 9.494172 16.671366
283 0 1 -1.179400 9.689753 10.412119 8.218025
284 0 2 0.589700 9.829581 11.305777 8.524234
285 0 2 0.589700 10.279345 9.877936 8.729119
286 0 1 -1.179400 9.852302 10.597535 20.248440
287 0 2 0.589700 9.019191 10.241210 19.987223
288 0 2 0.589700 9.776404 11.539366 20.099113
289 0 1 -1.179400 3.555065 0.806117 16.838503
290 0 2 0.589700 3.474281 0.653179 17.762640
291 0 2 0.589700 2.795083 1.322371 16.615000
292 0 1 -1.179400 3.083600 17.317524 2.632287
293 0 2 0.589700 2.979765 16.402384 2.377215
294 0 2 0.589700 3.159000 17.288933 3.568568
295 0 1 -1.179400 7.461956 14.396815 13.151959
296 0 2 0.589700 7.371046 14.240899 14.074676
297 0 2 0.589700 8.310356 14.045096 12.938115
298 0 1 -1.179400 10.103948 5.340443 2.150287
299 0 2 0.589700 10.857714 5.874040 1.945856
300 0 2 0.589700 10.096886 5.293349 3.088845
301 0 1 -1.179400 9.194044 17.880455 6.124620
302 0 2 0.589700 9.230762 18.767159 5.772681
303 0 2 0.589700 9.938581 17.435757 5.751230
304 0 1 -1.179400 14.240105 18.725540 1.534623
305 0 2 0.589700 14.358700 18.638378 0.606331
306 0 2 0.589700 14.428246 19.645418 1.713856
307 0 1 -1.179400 7.010682 16.588186 5.291892
308 0 2 0.589700 7.077408 16.732523 4.365306
309 0 2 0.589700 7.819041 16.926317 5.639686
310 0 1 -1.179400 14.125876 18.839537 13.153963
311 0 2 0.589700 13.956946 19.718981 12.823668
312 0 2 0.589700 13.375007 18.327541 12.893366
313 0 1 -1.179400 12.102594 6.600915 8.286841
314 0 2 0.589700 11.271861 6.332735 8.640749
315 0 2 0.589700 12.723932 6.004588 8.680729
316 0 1 -1.179400 7.556173 14.336740 20.363911
317 0 2 0.589700 7.309406 14.308983 21.270325
318 0 2 0.589700 7.510427 15.263784 20.134586
319 0 1 -1.179400 9.089436 18.147640 1.330446
320 0 2 0.589700 9.750514 18.079407 1.995720
321 0 2 0.589700 8.379055 17.610332 1.648778
322 0 1 -1.179400 6.897299 22.364820 15.775264
323 0 2 0.589700 7.069032 22.066967 14.898826
324 0 2 0.589700 7.653878 22.091684 16.265261
325 0 1 -1.179400 16.478168 6.678895 15.841778
326 0 2 0.589700 16.348066 6.590061 14.915182
327 0 2 0.589700 15.846087 6.086412 16.224028
328 0 1 -1.179400 11.278156 22.444260 8.030069
329 0 2 0.589700 11.139803 23.372118 8.214809
330 0 2 0.589700 11.411056 22.409246 7.100402
331 0 1 -1.179400 3.088904 6.624598 13.607921
332 0 2 0.589700 3.193514 7.539077 13.350887
333 0 2 0.589700 3.873693 6.193341 13.308991
334 0 1 -1.179400 0.643078 21.531986 17.183144
335 0 2 0.589700 17.794731 21.913347 16.698816
336 0 2 0.589700 1.406038 21.989014 16.865343
337 0 1 -1.179400 15.948373 8.862890 9.675413
338 0 2 0.589700 16.658667 9.323642 9.256948
339 0 2 0.589700 15.186213 9.380976 9.463709
340 0 1 -1.179400 0.552895 18.758121 6.128335
341 0 2 0.589700 1.421111 18.504808 5.865291
342 0 2 0.589700 0.538975 18.614677 7.057339
343 0 1 -1.179400 0.672259 18.703238 1.700278
344 0 2 0.589700 1.431327 18.192036 1.937654
345 0 2 0.589700 0.548810 18.522289 0.785774
346 0 1 -1.179400 13.613952 18.574734 5.831222
347 0 2 0.589700 14.431451 18.142870 5.640002
348 0 2 0.589700 12.958353 17.939266 5.576214
349 0 1 -1.179400 2.663984 22.721806 15.850716
350 0 2 0.589700 2.461173 22.636124 14.936948
351 0 2 0.589700 3.341591 22.075764 16.001364
352 0 1 -1.179400 15.562053 22.414883 6.013087
353 0 2 0.589700 16.333063 22.109083 5.566010
354 0 2 0.589700 15.781246 22.354816 6.925047
355 0 1 -1.179400 7.705776 1.394316 9.569637
356 0 2 0.589700 7.595781 0.491317 9.278041
357 0 2 0.589700 7.563614 1.355666 10.497794
358 0 1 -1.179400 10.376136 2.641222 20.642561
359 0 2 0.589700 10.319356 3.535403 20.312176
360 0 2 0.589700 9.586153 2.218549 20.345465
361 0 1 -1.179400 5.328957 10.529131 20.284458
362 0 2 0.589700 5.181344 11.431721 20.008650
363 0 2 0.589700 5.285703 10.564712 21.222538
364 0 1 -1.179400 0.719389 5.645416 12.362643
365 0 2 0.589700 0.701010 4.774601 12.752243
366 0 2 0.589700 1.404131 6.106918 12.820892
367 0 1 -1.179400 14.690000 2.392620 20.840605
368 0 2 0.589700 14.705808 3.310588 20.574945
369 0 2 0.589700 14.611473 2.424793 0.003377
370 0 1 -1.179400 13.651390 18.728601 8.693040
371 0 2 0.589700 13.617849 18.506983 7.779464
372 0 2 0.589700 14.210119 18.061586 9.070892
373 0 1 -1.179400 0.765889 13.431044 2.606862
374 0 2 0.589700 0.873116 13.327173 3.534876
375 0 2 0.589700 17.780899 13.828111 2.509161
376 0 1 -1.179400 6.991538 14.053142 8.752494
377 0 2 0.589700 6.078233 13.913073 8.931355
378 0 2 0.589700 7.083667 13.858476 7.837022
379 0 1 -1.179400 17.776632 21.262045 12.179890
380 0 2 0.589700 17.821943 20.391203 12.567233
381 0 2 0.589700 0.658048 21.725538 12.525570
382 0 1 -1.179400 2.212573 17.239683 9.354142
383 0 2 0.589700 3.049187 17.639122 9.178069
384 0 2 0.589700 2.332344 16.312799 9.152512
385 0 1 -1.179400 5.246673 18.669752 6.216579
386 0 2 0.589700 5.915297 18.076946 5.903028
387 0 2 0.589700 5.277321 19.415682 5.628520
388 0 1 -1.179400 9.307069 18.096819 20.316769
389 0 2 0.589700 9.135299 18.120539 21.240404
390 0 2 0.589700 9.578649 18.987577 20.105394
391 0 1 -1.179400 12.359289 6.819934 5.677828
392 0 2 0.589700 12.514633 6.916101 6.599833
393 0 2 0.589700 13.098161 6.321252 5.363635
394 0 1 -1.179400 1.019429 10.823483 20.796059
395 0 2 0.589700 0.262855 10.317722 20.540236
396 0 2 0.589700 0.924829 10.936982 21.724358
397 0 1 -1.179400 9.027731 20.812712 2.314198
398 0 2 0.589700 9.017640 19.955338 1.896571
399 0 2 0.589700 9.790637 21.246887 1.966769
400 0 1 -1.179400 14.031378 13.258080 12.283655
401 0 2 0.589700 14.760744 13.722022 12.664285
402 0 2 0.589700 14.083580 12.374252 12.640587
403 0 1 -1.179400 17.751509 18.440104 8.750589
404 0 2 0.589700 0.641907 18.037027 9.146191
405 0 2 0.589700 17.725470 19.324459 9.109109
406 0 1 -1.179400 16.725384 1.301500 2.742070
407 0 2 0.589700 16.764967 0.420090 2.377833
408 0 2 0.589700 15.883930 1.635651 2.479273
409 0 1 -1.179400 11.245574 22.771908 16.101593
410 0 2 0.589700 11.338675 23.690800 16.347639
411 0 2 0.589700 12.075441 22.376024 16.313581
412 0 1 -1.179400 0.035169 21.413074 4.959774
413 0 2 0.589700 0.246779 21.252949 4.057724
414 0 2 0.589700 0.155661 20.565023 5.378531
415 0 1 -1.179400 7.609582 6.270847 1.334587
416 0 2 0.589700 7.083667 5.619143 1.779268
417 0 2 0.589700 8.494280 6.051898 1.571249
418 0 1 -1.179400 9.958647 2.679288 5.540227
419 0 2 0.589700 9.210608 2.199730 5.219066
420 0 2 0.589700 10.023487 3.443817 4.978559
421 0 1 -1.179400 12.026365 6.817597 12.927315
422 0 2 0.589700 12.223765 7.738946 12.766219
423 0 2 0.589700 12.133287 6.712912 13.855277
424 0 1 -1.179400 12.754773 24.739542 0.528817
425 0 2 0.589700 13.113760 25.169151 1.288165
426 0 2 0.589700 11.878019 25.080536 0.464807
427 0 1 -1.179400 5.108460 13.112389 12.542037
428 0 2 0.589700 5.208320 12.185768 12.755331
429 0 2 0.589700 5.988117 13.449960 12.506734
430 0 1 -1.179400 15.995845 17.070662 12.230687
431 0 2 0.589700 15.258548 17.579376 12.532833
432 0 2 0.589700 16.740715 17.626213 12.409692
433 0 1 -1.179400 5.309503 21.132277 19.347290
434 0 2 0.589700 5.071140 20.400301 19.904013
435 0 2 0.589700 4.768861 21.857557 19.637844
436 0 1 -1.179400 14.379636 2.774891 5.904402
437 0 2 0.589700 14.516554 2.915359 6.823836
438 0 2 0.589700 15.127242 2.266943 5.627327
439 0 1 -1.179400 16.193989 1.586792 12.612537
440 0 2 0.589700 16.400682 0.725030 12.965559
441 0 2 0.589700 15.355141 1.802046 12.981851
442 0 1 -1.179400 11.875573 9.174193 9.459505
443 0 2 0.589700 12.608957 9.732153 9.244097
444 0 2 0.589700 11.955770 8.422596 8.883181
445 0 1 -1.179400 0.740748 10.638632 16.346745
446 0 2 0.589700 0.564846 11.507038 16.700699
447 0 2 0.589700 17.855257 10.115773 16.585419
448 0 1 -1.179400 7.128760 16.578819 2.428822
449 0 2 0.589700 6.990263 15.756655 1.967976
450 0 2 0.589700 6.536956 17.197437 2.022880
451 0 1 -1.179400 0.503958 13.459042 19.910019
452 0 2 0.589700 0.548921 12.569434 20.253836
453 0 2 0.589700 17.504690 13.760960 20.131884
454 0 1 -1.179400 4.515612 12.954689 9.902911
455 0 2 0.589700 4.683804 13.024564 10.824948
456 0 2 0.589700 4.676944 12.034501 9.700637
457 0 1 -1.179400 5.283609 2.760407 13.522407
458 0 2 0.589700 6.122695 2.491857 13.189022
459 0 2 0.589700 4.674644 2.515313 12.847716
460 0 1 -1.179400 10.001420 5.148786 19.579435
461 0 2 0.589700 10.060458 5.258246 18.647739
462 0 2 0.589700 9.391355 5.821351 19.854671
463 0 1 -1.179400 15.766892 45.394684 18.424095
464 0 2 0.589700 16.076622 45.926434 19.141603
465 0 2 0.589700 16.296366 45.665314 17.694166
466 0 1 -1.179400 0.594622 2.970559 13.251254
467 0 2 0.589700 17.557791 2.727306 13.133639
468 0 2 0.589700 0.768357 2.792901 14.158196
469 0 1 -1.179400 11.855115 17.616722 16.886196
470 0 2 0.589700 11.135059 18.039700 16.446470
471 0 2 0.589700 12.620999 18.032934 16.524403
472 0 1 -1.179400 5.032295 18.249626 15.682038
473 0 2 0.589700 4.860921 19.088013 16.101864
474 0 2 0.589700 4.846398 18.408018 14.774062
475 0 1 -1.179400 7.750327 8.884640 12.436755
476 0 2 0.589700 6.912354 9.246621 12.673869
477 0 2 0.589700 7.642620 7.937322 12.517262
478 0 1 -1.179400 6.985658 14.187108 1.108157
479 0 2 0.589700 7.814317 13.933402 1.476885
480 0 2 0.589700 6.363741 13.597856 1.511289
481 0 1 -1.179400 9.049518 18.578220 16.087440
482 0 2 0.589700 9.191594 18.301178 15.199206
483 0 2 0.589700 8.874903 19.516703 16.026691
484 0 1 -1.179400 14.259263 10.796293 13.428204
485 0 2 0.589700 13.558937 10.327269 13.001909
486 0 2 0.589700 15.041430 10.363464 13.124646
487 0 1 -1.179400 2.917578 1.127086 5.724157
488 0 2 0.589700 2.212986 1.754776 5.813693
489 0 2 0.589700 3.025957 1.024400 4.796147
490 0 1 -1.179400 11.362348 22.698038 13.272038
491 0 2 0.589700 10.613624 22.132607 13.147023
492 0 2 0.589700 11.332739 22.936193 14.181729
493 0 1 -1.179400 7.756254 1.374334 2.352729
494 0 2 0.589700 6.958108 1.683818 1.958763
495 0 2 0.589700 8.424131 1.940595 1.993590
496 0 1 -1.179400 7.543615 22.313938 20.360765
497 0 2 0.589700 6.862666 21.908436 19.848936
498 0 2 0.589700 7.290123 22.153923 21.251999
499 0 1 -1.179400 0.582423 17.988619 20.670151
500 0 2 0.589700 17.774780 17.401407 20.355978
501 0 2 0.589700 1.360451 17.706474 20.220222
502 0 1 -1.179400 0.177626 18.724112 13.018760
503 0 2 0.589700 0.876214 18.250454 12.594561
504 0 2 0.589700 0.330992 18.590414 13.936577
505 0 1 -1.179400 14.249189 5.268727 16.862572
506 0 2 0.589700 14.461953 4.373068 16.608301
507 0 2 0.589700 14.281703 5.256592 17.801661
508 0 1 -1.179400 13.647204 21.561743 12.284364
509 0 2 0.589700 12.834171 21.773430 12.709109
510 0 2 0.589700 13.415247 21.431574 11.382660
511 0 1 -1.179400 9.617679 18.227985 13.541778
512 0 2 0.589700 8.862379 17.831581 13.138706
513 0 2 0.589700 9.579778 19.149000 13.288819
514 0 1 -1.179400 14.447864 2.319716 8.697225
515 0 2 0.589700 15.012037 1.569264 8.847819
516 0 2 0.589700 13.616910 2.053015 9.051690
517 0 1 -1.179400 7.571567 14.055917 5.974872
518 0 2 0.589700 7.377280 14.909454 5.596485
519 0 2 0.589700 8.252092 13.696653 5.430232
520 0 1 -1.179400 7.775414 6.747182 15.917089
521 0 2 0.589700 6.977399 6.395021 16.275137
522 0 2 0.589700 7.753766 7.678369 16.133411
523 0 1 -1.179400 16.773085 8.870131 5.076754
524 0 2 0.589700 17.500376 9.405090 5.358729
525 0 2 0.589700 16.869650 8.047522 5.547403
526 0 1 -1.179400 7.416711 7.193546 8.346527
527 0 2 0.589700 7.400182 7.948188 8.924344
528 0 2 0.589700 8.186660 6.706808 8.598081
529 0 1 -1.179400 12.435330 9.414245 12.162859
530 0 2 0.589700 11.544066 9.673682 12.323152
531 0 2 0.589700 12.476905 9.271779 11.234530
532 0 1 -1.179400 13.653130 21.156385 4.577357
533 0 2 0.589700 14.248367 21.406115 5.262550
534 0 2 0.589700 13.533015 20.213951 4.689422
535 0 1 -1.179400 16.282087 22.388107 20.480049
536 0 2 0.589700 17.120659 21.968315 20.372105
537 0 2 0.589700 16.248720 23.047716 19.799911
538 0 1 -1.179400 12.106506 6.478035 15.571779
539 0 2 0.589700 12.006369 7.359235 15.924747
540 0 2 0.589700 12.925132 6.168448 15.921226
541 0 1 -1.179400 16.787001 6.249156 6.106381
542 0 2 0.589700 15.962986 5.991188 5.730188
543 0 2 0.589700 16.602753 6.365198 7.020838
544 0 1 -1.179400 14.131732 5.074840 9.207191
545 0 2 0.589700 14.079137 4.135562 9.380118
546 0 2 0.589700 15.051209 5.245596 9.099880
547 0 1 -1.179400 13.694236 13.029384 17.088146
548 0 2 0.589700 14.481403 13.385067 16.710056
549 0 2 0.589700 13.771162 12.082443 16.974836
550 0 1 -1.179400 0.853729 10.492731 6.184915
551 0 2 0.589700 0.443561 10.292132 7.007381
552 0 2 0.589700 0.817294 11.447012 6.121940
553 0 1 -1.179400 4.644496 21.154848 9.646595
554 0 2 0.589700 5.475659 21.483540 9.347057
555 0 2 0.589700 4.471066 20.395050 9.101973
556 0 1 -1.179400 3.007596 14.602531 1.691813
557 0 2 0.589700 2.119050 14.365706 1.895158
558 0 2 0.589700 3.083702 14.452870 0.766766
559 0 1 -1.179400 11.630630 14.954564 1.621644
560 0 2 0.589700 12.402369 14.495422 1.914380
561 0 2 0.589700 11.757231 15.063211 0.696595
562 0 1 -1.179400 16.006548 17.249311 5.216481
563 0 2 0.589700 16.748335 17.672716 5.618124
564 0 2 0.589700 16.206347 17.248228 4.298190
565 0 1 -1.179400 9.443690 20.598906 12.334579
566 0 2 0.589700 9.560784 20.779917 11.419254
567 0 2 0.589700 8.560199 20.871376 12.515644
568 0 1 -1.179400 3.794003 0.710831 19.605370
569 0 2 0.589700 3.127394 1.022820 20.193527
570 0 2 0.589700 4.004736 45.635155 19.915924
571 0 1 -1.179400 0.708390 5.011445 16.739574
572 0 2 0.589700 1.516652 5.483787 16.612051
573 0 2 0.589700 0.052525 5.581825 16.364960
574 0 1 -1.179400 16.651203 9.188268 19.684250
575 0 2 0.589700 15.834002 9.584175 19.940649
576 0 2 0.589700 16.657148 9.250810 18.746552
577 0 1 -1.179400 5.076477 10.488599 6.206407
578 0 2 0.589700 5.662033 10.158220 5.546256
579 0 2 0.589700 4.995032 11.422864 6.019029
580 0 1 -1.179400 4.887767 10.442704 9.038007
581 0 2 0.589700 5.645586 9.985424 9.367517
582 0 2 0.589700 4.930133 10.321545 8.106801
583 0 1 -1.179400 2.764513 17.089666 16.839981
584 0 2 0.589700 2.639659 16.170195 16.610624
585 0 2 0.589700 3.587876 17.325089 16.448433
586 0 1 -1.179400 13.581213 21.566936 9.404962
587 0 2 0.589700 12.902096 21.954153 8.877295
588 0 2 0.589700 13.544593 20.631392 9.209814
589 0 1 -1.179400 9.143583 20.610600 5.083128
590 0 2 0.589700 9.735600 21.352577 5.135575
591 0 2 0.589700 8.842958 20.614597 4.192677
592 0 1 -1.179400 7.600195 1.776855 12.771658
593 0 2 0.589700 7.513646 1.033372 13.357141
594 0 2 0.589700 8.371898 2.234222 13.067147
595 0 1 -1.179400 1.112482 5.138482 2.523523
596 0 2 0.589700 0.454830 5.641372 2.067657
597 0 2 0.589700 0.942815 5.307258 3.432864
598 0 1 -1.179400 10.421929 2.820774 15.985261
599 0 2 0.589700 9.678259 2.387950 16.373528
600 0 2 0.589700 10.398881 3.711603 16.328207
601 0 1 -1.179400 5.025994 18.499798 20.217079
602 0 2 0.589700 5.011474 18.270376 21.129297
603 0 2 0.589700 5.668246 17.913609 19.842463
604 0 1 -1.179400 2.271989 17.116106 12.236575
605 0 2 0.589700 2.443970 17.189751 11.315516
606 0 2 0.589700 2.455658 16.200665 12.440619
607 0 1 -1.179400 13.826961 3.020752 13.229598
608 0 2 0.589700 13.931628 3.847241 12.767303
609 0 2 0.589700 12.939813 2.757118 13.053819
610 0 1 -1.179400 7.085642 16.988995 16.802177
611 0 2 0.589700 6.301677 17.411135 16.488894
612 0 2 0.589700 7.779222 17.580643 16.545788
613 0 1 -1.179400 15.919990 14.287279 20.971409
614 0 2 0.589700 15.914153 14.425957 0.128062
615 0 2 0.589700 16.037300 15.161973 20.608273
616 0 1 -1.179400 9.178726 21.298012 16.730202
617 0 2 0.589700 9.444510 21.066050 17.602407
618 0 2 0.589700 9.859939 21.876287 16.417501
619 0 1 -1.179400 15.923094 22.946125 12.796427
620 0 2 0.589700 15.078775 22.557484 12.634315
621 0 2 0.589700 16.534704 22.316801 12.438474
622 0 1 -1.179400 16.474865 6.220656 8.948769
623 0 2 0.589700 17.306007 5.968808 9.313133
624 0 2 0.589700 16.288977 7.073666 9.332484
625 0 1 -1.179400 2.700847 8.938764 16.979666
626 0 2 0.589700 2.835072 9.102865 17.895718
627 0 2 0.589700 1.940221 9.455705 16.759897
628 0 1 -1.179400 16.232908 14.314993 13.083532
629 0 2 0.589700 16.322611 15.203872 12.746697
630 0 2 0.589700 16.955879 13.834474 12.710634
631 0 1 -1.179400 11.676693 14.822964 16.072903
632 0 2 0.589700 11.680606 15.761403 16.257771
633 0 2 0.589700 12.408770 14.476464 16.555262
634 0 1 -1.179400 14.530284 10.276709 6.132887
635 0 2 0.589700 15.360087 9.908829 5.876632
636 0 2 0.589700 14.521570 11.153322 5.755682
637 0 1 -1.179400 0.663205 13.027314 12.292359
638 0 2 0.589700 0.777355 12.154689 12.661251
639 0 2 0.589700 1.362378 13.546596 12.660392
640 0 1 -1.179400 11.909686 14.477713 5.704611
641 0 2 0.589700 11.871341 14.532941 6.641989
642 0 2 0.589700 11.205665 13.888163 5.473164
643 0 1 -1.179400 11.461252 17.200293 4.901825
644 0 2 0.589700 11.771113 16.325474 5.124532
645 0 2 0.589700 11.623318 17.278631 3.979350
646 0 1 -1.179400 0.864841 4.731154 19.571625
647 0 2 0.589700 1.703875 5.113245 19.771687