LAMMPS data file via write_data, version 29 Sep 2021, timestep = 2000000

864 atoms
2 atom types

0.22557480506072913 17.98199819494061 xlo xhi
0.2656973123466102 21.180417687655552 ylo yhi
0.2752007287003444 21.937995271300487 zlo zhi

Masses

1 1.008
2 15.999

Atoms # full

623 0 2 0.5897 3.172559776763079 3.3766051960107557 3.1094010216583245 1 1 0
487 0 1 -1.1794 4.085489352907619 1.9279373628284096 3.6993786416508194 -1 1 0
465 0 2 0.5897 3.783753271332259 1.0699142225045142 2.2798160650338324 0 0 1
488 0 2 0.5897 3.7252448243698684 1.7151753691909826 4.546991356153504 -1 1 0
622 0 1 -1.1794 2.5690369978016143 4.11401927485953 2.926011028151324 1 1 0
233 0 2 0.5897 2.057841082775276 4.443555263228074 1.2340751643926646 1 0 1
542 0 2 0.5897 1.373625302722025 0.9828816263580846 2.826794772146292 1 0 1
207 0 2 0.5897 0.8794778425041272 3.7580225741626956 3.491841798290981 0 0 1
463 0 1 -1.1794 3.595526024545169 0.6086572953302731 1.4501937217705068 0 0 1
232 0 1 -1.1794 1.6038818461666235 4.301283619697947 0.33565119186088155 1 0 1
234 0 2 0.5897 0.6634593166918712 4.007701749723822 0.3678980310139841 1 0 1
489 0 2 0.5897 5.059688782347614 1.9153291741435812 3.721717303757969 -1 1 0
1 0 1 -1.1794 7.098454994383157 0.46960844450708517 0.6419541207979795 0 1 1
822 0 2 0.5897 7.3085131388230655 0.4118411148159089 3.2413990946501667 0 1 1
747 0 2 0.5897 8.234932228964995 4.129667631376281 2.7901712641950263 1 0 0
745 0 1 -1.1794 7.462670324227497 4.298407684574501 3.3991148706429937 1 0 0
72 0 2 0.5897 6.469623259980398 2.2832778292845313 0.6855209973880215 0 0 0
71 0 2 0.5897 6.309971349940221 3.82884518860203 0.44636156250376124 0 0 0
826 0 1 -1.1794 9.057655307767037 1.2893050674713045 3.694928020373722 0 1 1
668 0 2 0.5897 6.910300150781978 2.6902943036205826 4.2320698001884836 1 1 0
114 0 2 0.5897 9.955679872188309 3.87902801619006 1.2185830233579367 1 1 0
113 0 2 0.5897 10.2448127661119 3.08817986339037 2.50695152766565 1 1 0
827 0 2 0.5897 9.829901152736024 0.762537225759416 3.4396699631009384 0 1 1
112 0 1 -1.1794 9.818717598771475 3.8523516408015857 2.200424951625031 1 1 0
861 0 2 0.5897 13.130355091691586 1.8411257483534815 4.293745446072945 0 2 1
645 0 2 0.5897 12.870233510764193 0.5982019076912278 0.4953125400844545 0 0 1
690 0 2 0.5897 13.197086400259462 4.145087499085667 2.5053452183016094 1 1 0
828 0 2 0.5897 9.16960674319802 1.6060636916647915 4.582952753923259 0 1 1
688 0 1 -1.1794 13.704761118618368 3.6150611554574876 1.844755730388576 1 1 0
689 0 2 0.5897 13.916736295647905 2.764842854557034 2.2490955286582412 1 1 0
205 0 1 -1.1794 17.68627573089711 3.6534139844276017 3.6397922840286037 -1 0 1
206 0 2 0.5897 17.614036701640195 2.83461308592865 4.152859384842433 -1 0 1
90 0 2 0.5897 17.02219181105246 3.291213802053127 1.8265038597278869 0 0 0
405 0 2 0.5897 15.20124021702611 0.9958213107852901 3.638054458975116 0 0 1
403 0 1 -1.1794 14.541233930262674 1.1694167411244443 2.9871883215655 0 0 1
404 0 2 0.5897 14.505597301350376 0.42244155933458005 2.4296384104165174 0 0 1
89 0 2 0.5897 16.613069305115644 2.2348174324891388 0.7854413428882736 0 0 0
88 0 1 -1.1794 16.806589986447186 3.1597994976543826 0.9056320252169128 0 0 0
624 0 2 0.5897 3.0055489042848698 4.899903708789985 3.293621667689709 1 1 0
95 0 2 0.5897 4.1359253697870875 7.163014254748408 1.6674561371787926 -1 0 0
787 0 1 -1.1794 2.4227472290087655 7.287810110580554 2.4268852085050274 0 1 0
789 0 2 0.5897 2.5145352156949357 7.850413176411009 3.219496260912447 0 1 0
363 0 2 0.5897 4.407460462607511 6.474192828222401 4.406677199257378 0 0 0
788 0 2 0.5897 1.510966241409953 7.072604084188843 2.386172283006392 0 1 0
94 0 1 -1.1794 4.780488525001229 7.527519146166025 1.041133202420582 -1 0 0
47 0 2 0.5897 5.8400363666916695 6.3790708005160495 1.1603574318772703 -1 0 0
746 0 2 0.5897 7.765449641093154 4.956175876944905 4.060993373167085 1 0 0
48 0 2 0.5897 6.643465309197277 5.360451878254754 2.102057908632946 -1 0 0
46 0 1 -1.1794 6.5098076099886395 5.608784305663794 1.1897195778021779 -1 0 0
709 0 1 -1.1794 7.840785621633195 8.326547275387687 2.435804980982942 -1 1 1
711 0 2 0.5897 8.431177289110815 7.592383376153255 2.6150062511025403 -1 1 1
431 0 2 0.5897 5.674485743851045 7.781807972138377 2.8753552904846558 0 1 0
430 0 1 -1.1794 5.345310302381439 7.787090284323428 3.799648572627811 -1 1 0
710 0 2 0.5897 8.14470822726744 8.602622373219416 1.5442982767488456 -1 1 1
422 0 2 0.5897 10.779968745439042 7.091114286372209 3.0082270971307628 0 0 0
328 0 1 -1.1794 12.349108183243866 7.8606233465346325 2.2938656166105575 0 0 0
423 0 2 0.5897 10.186879183631504 5.666395334430739 2.942040851443294 0 0 0
421 0 1 -1.1794 10.138982825450622 6.497817890079515 3.399650112292136 0 0 0
329 0 2 0.5897 13.289016795887257 7.887918256088428 2.517696228641198 0 0 0
519 0 2 0.5897 12.161382725523328 6.827477174580391 1.003694714308742 -2 0 1
409 0 1 -1.1794 12.410682457826953 4.766592313576671 4.451580752851143 -1 0 0
411 0 2 0.5897 11.60407259362168 5.28902368146798 4.421252733250077 -1 0 0
517 0 1 -1.1794 12.137560585223966 6.19870874696687 0.30754180267431863 -2 0 1
671 0 2 0.5897 16.786081749299896 5.1261152991550105 4.387916985679899 -1 0 1
137 0 2 0.5897 15.483972466884028 7.076594352915689 3.6577920724015165 0 1 0
136 0 1 -1.1794 14.91911623217374 7.770242298074995 3.2310577128632683 0 1 0
138 0 2 0.5897 15.480127781712987 8.384457201582501 2.7710491242999753 0 1 0
449 0 2 0.5897 14.900161181449766 4.899644620238997 0.5976675329120075 -2 1 0
670 0 1 -1.1794 16.481539064966036 5.9964657560765815 4.607628938415838 -1 0 1
30 0 2 0.5897 3.496263133580932 10.519270786451443 1.8895065211381308 1 0 0
28 0 1 -1.1794 2.5698957443266415 10.713636991996346 2.1386938476056203 1 0 0
29 0 2 0.5897 2.5244917286339463 11.686094899901436 2.251831598996156 1 0 0
829 0 1 -1.1794 2.117718808464563 9.320211507201543 4.30497396579103 0 1 0
831 0 2 0.5897 2.51907984038084 10.044691725158728 3.869241527677113 0 1 0
819 0 2 0.5897 5.320425007518692 9.166591586803106 1.3301980379316831 0 1 0
817 0 1 -1.1794 5.377542681879523 10.133927483998892 1.3181133623808747 0 1 0
818 0 2 0.5897 6.106699725011902 10.395393046589932 1.8917644144105852 0 1 0
49 0 1 -1.1794 7.933759374302605 11.259231703627465 1.810083233149468 1 0 1
842 0 2 0.5897 8.636048944169376 9.437702438743052 3.6359777290289217 0 0 0
50 0 2 0.5897 7.708733808270081 12.032948072191633 2.3278429431047405 1 0 1
51 0 2 0.5897 8.265923053663464 11.58750044819333 0.9838326621668835 1 0 1
843 0 2 0.5897 8.973907409312636 10.843964351152524 3.962564987561749 0 0 0
432 0 2 0.5897 5.413101045674124 8.667376664559942 4.209061007916603 0 1 0
510 0 2 0.5897 5.541856487909909 11.173873175162496 4.197119792049337 1 -1 0
162 0 2 0.5897 5.93687799251533 12.43415065054021 0.850063989940749 0 -1 1
330 0 2 0.5897 12.114994439302164 8.795088884764374 2.3049234049242737 0 0 0
841 0 1 -1.1794 9.347151165512605 9.9314123528152 4.0895740638064435 0 0 0
756 0 2 0.5897 12.112704823740797 10.87396661759546 2.853835179522967 -1 0 0
754 0 1 -1.1794 11.434884916440492 10.530718849409586 2.2327552282450087 -1 -1 0
755 0 2 0.5897 10.652823584330113 10.525722172622093 2.8043424988418906 -1 0 0
270 0 2 0.5897 12.30313689784857 10.1654579153918 0.44750614793916066 0 0 1
493 0 1 -1.1794 14.218064108912678 11.266123002646555 3.1084561967788114 1 2 0
346 0 1 -1.1794 16.437572397456805 9.92273976549664 2.1409728949262634 -1 0 0
348 0 2 0.5897 16.789931311130616 9.491837932217418 1.3340739012752298 -1 0 0
494 0 2 0.5897 14.283450822595825 11.58612669304661 4.043273226883659 1 2 0
347 0 2 0.5897 17.002599481344248 9.700339544310415 2.8900249309145227 -1 0 0
495 0 2 0.5897 15.042407185831475 10.942375101737012 2.836883862468448 1 2 -1
264 0 2 0.5897 14.134515452452195 12.660090540594725 1.9810371529373576 -1 0 0
551 0 2 0.5897 1.1431444028820106 14.54434927101269 3.5995267124718158 1 0 0
537 0 2 0.5897 1.979248112541117 13.621714279457834 1.4180158027633691 0 0 1
535 0 1 -1.1794 2.1072487855358286 13.41494375043674 2.3990664601401357 0 0 1
536 0 2 0.5897 2.970785137488774 13.784498178228814 2.605758304313828 0 0 1
550 0 1 -1.1794 0.4597585280598817 14.83832497578533 4.221122146729632 1 0 0
490 0 1 -1.1794 4.61960310066831 14.742063851949757 2.800715139516978 -1 0 1
492 0 2 0.5897 4.566200427976491 15.293453666485338 3.575410217780148 -1 0 1
135 0 2 0.5897 2.8718559897227687 15.964245765329752 0.6046180226326294 2 0 0
133 0 1 -1.1794 2.6779574037999176 16.926625243440974 0.6614768731137399 2 0 0
739 0 1 -1.1794 6.28022918709901 12.878095116751917 3.617393304340578 1 1 0
6 0 2 0.5897 8.751130063691125 14.273333001828298 0.3697269139868273 0 1 1
740 0 2 0.5897 6.708142156263137 13.026762266669168 4.417405583949703 1 1 0
491 0 2 0.5897 5.159424054733115 15.207382609469295 2.0981017548168372 -1 0 1
267 0 2 0.5897 7.712346906125047 14.895817154574935 2.6547650552624518 -1 -1 0
741 0 2 0.5897 5.6371346515091085 13.533421154062484 3.3848629710510343 1 1 0
4 0 1 -1.1794 7.921157916317564 13.960229423085888 0.7932853191717326 0 1 1
265 0 1 -1.1794 8.202013731844833 15.5694045188412 3.1680588818864477 -1 -1 0
266 0 2 0.5897 8.125033392362617 15.370906444466742 4.124485783999891 -1 -1 0
753 0 2 0.5897 6.521857004280863 15.463263457316954 0.4394939548508364 1 0 0
751 0 1 -1.1794 5.7385092462810805 16.024879330411128 0.3683575748335456 1 0 0
167 0 2 0.5897 6.466657078334 16.819042890442244 3.7527528661843808 0 0 1
768 0 2 0.5897 9.971531342498603 13.41861644006462 3.7325977525879326 0 0 0
661 0 1 -1.1794 11.142417644265112 14.20803466160972 2.347255142303567 0 -1 1
662 0 2 0.5897 12.006082763552985 13.932135302196642 1.976299202379287 0 -1 1
663 0 2 0.5897 10.586380387861912 14.448992898297451 1.6032445460825553 0 -1 1
24 0 2 0.5897 11.391259081486902 15.56285668710477 3.24055121491828 -1 0 0
23 0 2 0.5897 12.40172297192575 16.640884977444333 3.6173572450599307 -1 0 0
22 0 1 -1.1794 11.562603917350005 16.255818541689578 3.8744537179395073 -1 0 0
766 0 1 -1.1794 9.59817310596598 12.882653160263247 4.452094733599725 0 0 0
552 0 2 0.5897 17.47430417643651 15.133836573398362 3.6770634792318253 0 0 0
262 0 1 -1.1794 13.967724591486261 13.429821775567993 1.439593362037841 -1 0 0
263 0 2 0.5897 14.597291244775883 14.093868660980494 1.6549356635618229 -1 -1 0
696 0 2 0.5897 16.30829099064725 16.062172316732877 1.9002064903505438 -1 0 0
694 0 1 -1.1794 15.744123987759753 15.411111069903919 2.420881894374939 -1 0 0
695 0 2 0.5897 15.15435065045918 16.07518193735683 2.862270490812515 -1 0 0
368 0 2 0.5897 1.0804989407572096 17.147639207179008 1.1250947896414587 0 0 1
543 0 2 0.5897 1.5275519971105367 21.06340793040539 1.6076523578854494 1 -1 1
541 0 1 -1.1794 0.9446032050446126 21.141947444833498 2.375367528034859 1 -1 1
464 0 2 0.5897 3.6804098048945915 20.616770432833675 1.6656356481320413 0 -1 1
134 0 2 0.5897 3.326041533137901 17.3202146517166 1.19807755892877 2 0 0
769 0 1 -1.1794 3.9035902501632926 18.694449444730218 2.345615048971111 1 0 0
771 0 2 0.5897 3.881144763824063 18.74244172977912 3.3545394896508567 1 0 0
455 0 2 0.5897 0.6534315182911625 19.37489660086401 3.436862326720608 0 -1 1
291 0 2 0.5897 8.800143160464938 18.071411783963985 3.6757590337715533 1 0 0
770 0 2 0.5897 4.837366368754885 18.497622559987647 2.1300844290920242 1 0 0
2 0 2 0.5897 7.201056117591707 20.407868623715878 0.6418413021863227 0 0 1
820 0 1 -1.1794 6.69172611698327 20.64486274886029 3.530889003802744 0 0 1
620 0 2 0.5897 7.106562470951472 17.938570169631635 1.7714632773760017 0 0 1
619 0 1 -1.1794 6.803200562384185 18.177149292340946 2.676700137228561 0 0 1
621 0 2 0.5897 6.922094239281559 19.138093138721867 2.6991675591106614 0 0 1
821 0 2 0.5897 6.851319082015063 20.531472578350243 4.450928757838386 0 0 1
643 0 1 -1.1794 12.946757310247015 20.678068308801784 1.0165838860994079 0 -1 1
644 0 2 0.5897 12.237760293711396 20.661473111721154 1.6637825384056255 0 -1 1
115 0 1 -1.1794 11.177225080043867 19.949871570185344 3.0550926202871365 1 -1 1
116 0 2 0.5897 10.469696965537526 19.360017990258015 3.261208778055162 1 -1 1
290 0 2 0.5897 10.186479613712843 17.32778145066127 4.023324598745524 1 -1 0
289 0 1 -1.1794 9.660472936539016 18.140948943144867 4.095287293286342 1 -1 0
627 0 2 0.5897 10.577472584526843 18.444049789016983 0.9011661477446549 -1 0 1
117 0 2 0.5897 11.385634682955171 20.254279626009925 4.024378238624184 1 -1 1
78 0 2 0.5897 13.270790290383013 18.860709811426315 0.27601771345176473 -2 -1 1
367 0 1 -1.1794 17.908097469544053 17.370312877568313 1.4217433191564175 -1 0 1
736 0 1 -1.1794 13.819274013212468 17.416785568693804 3.0303156686715496 0 1 0
737 0 2 0.5897 13.608108886877663 17.69737043895914 2.062637723618788 0 1 0
738 0 2 0.5897 14.080548301694913 18.20065503072029 3.513441746508555 0 1 0
864 0 2 0.5897 16.670659279515164 20.99559420890382 1.7315604539969098 0 -1 1
369 0 2 0.5897 17.4100433663994 17.553423174195135 0.6277719019669286 -1 0 1
456 0 2 0.5897 17.795833344935673 18.133437720926068 2.800161717777293 -1 0 1
454 0 1 -1.1794 17.872488860605884 18.578022524729185 3.6469273061107623 -1 -1 1
759 0 2 0.5897 16.266997110399878 18.70321988746762 4.393854220352153 0 -1 0
76 0 1 -1.1794 13.6793017895964 17.988147789606437 0.4260006828699576 -2 -1 1
862 0 1 -1.1794 16.150631180932898 20.838319102890992 0.9600270507356721 0 -1 1
863 0 2 0.5897 16.577766694341506 20.09256168136788 0.5452858616279996 0 -1 1
595 0 1 -1.1794 2.617053686397705 1.5631610650544296 5.856086382753729 -1 0 1
596 0 2 0.5897 2.38955910042855 2.419107773793953 6.195094100134753 -1 0 1
597 0 2 0.5897 3.247376581711843 1.132381009147955 6.460426127278598 -1 0 1
796 0 1 -1.1794 1.3741315151041196 3.705846559396362 7.002856926589628 0 0 0
797 0 2 0.5897 0.5279188357764157 3.521923926896166 7.366767218743939 0 0 0
45 0 2 0.5897 1.407881301293068 0.5283216726581211 5.799882038283014 1 1 0
381 0 2 0.5897 4.322032100285638 4.229526084704455 7.548555518922003 0 0 0
836 0 2 0.5897 2.2430449986256087 3.816406482673179 8.413169588885433 0 1 0
282 0 2 0.5897 4.608123863347423 1.0061279356379451 8.428918326682235 0 0 -1
280 0 1 -1.1794 4.411810997499263 0.28503001343586737 7.793622757995208 0 0 -1
667 0 1 -1.1794 6.376819137177936 2.3407076417336765 4.99341460975423 1 1 0
572 0 2 0.5897 7.273938975210339 1.3412544015727794 6.294629585235601 0 1 0
571 0 1 -1.1794 7.715814882349074 0.9621631962088562 7.115075010126618 0 1 0
669 0 2 0.5897 6.186198160799784 3.090057356276349 5.653881081299055 1 1 0
750 0 2 0.5897 7.868363028749277 2.251410269065187 8.543845780379463 0 1 -1
749 0 2 0.5897 7.860579316547337 3.7679187562571745 8.76890588825472 0 1 0
859 0 1 -1.1794 12.221983038111656 2.0293936915145556 4.622122683261344 0 2 1
860 0 2 0.5897 12.172148503453224 3.0387027412262504 4.713667862958185 0 2 1
170 0 2 0.5897 9.449161702274415 2.0955106422698626 6.9660213900317665 1 0 0
169 0 1 -1.1794 10.305465932439464 2.5004601117751033 6.845934912299321 1 0 0
171 0 2 0.5897 10.19791069566187 3.4267564357157205 7.0507709912140895 1 0 0
132 0 2 0.5897 11.747645756763884 2.157275802561341 8.054732347338293 0 1 0
98 0 2 0.5897 11.929294909922682 0.5092305693537384 5.430316257393952 -1 0 0
130 0 1 -1.1794 12.5335805095466 1.870412006595049 8.597455098703993 0 1 1
131 0 2 0.5897 12.375805648842894 0.9742213422521789 8.92376079959951 0 1 1
781 0 1 -1.1794 17.275165456840277 3.229211199325081 8.709235788138527 1 0 0
73 0 1 -1.1794 16.60913434348339 1.3412201802063177 4.979685507706621 -1 1 1
74 0 2 0.5897 15.926415957133985 1.6701059874401036 5.5650956995916045 -1 1 1
179 0 2 0.5897 15.664787527619357 2.7221376551676943 7.7559284961985435 -1 1 1
180 0 2 0.5897 14.077962024131804 2.2498931175138432 7.815490801010439 -1 1 1
178 0 1 -1.1794 14.846018254429966 2.5148767139991324 7.244274884103108 -1 1 1
75 0 2 0.5897 17.196305199799852 0.7035610877636217 5.4606274202075245 -1 1 1
467 0 2 0.5897 14.401370320751639 4.285496376111786 6.682398518002929 0 0 0
608 0 2 0.5897 14.650336813961866 0.48746824618810525 7.079082925078112 0 1 1
361 0 1 -1.1794 3.736602146063403 5.758559139997414 4.623773113938203 0 0 0
798 0 2 0.5897 1.3798542214665386 4.584281476586746 6.644998196087567 0 0 0
25 0 1 -1.1794 1.191351409181069 6.230515151016134 5.8240767893330325 0 0 0
27 0 2 0.5897 1.9646675983241577 6.1713618828817705 5.26023711075551 0 0 0
530 0 2 0.5897 3.1810140187148854 7.700990403474856 7.510907787987789 0 0 0
529 0 1 -1.1794 2.3543455306889163 8.113864212560038 7.417457452612871 0 0 0
362 0 2 0.5897 4.002685952173637 5.256796596851732 5.432301905623978 0 0 0
531 0 2 0.5897 1.6764971514966978 7.521986898398806 7.0838399223088 0 0 0
26 0 2 0.5897 0.3818160242876064 6.2838766353808255 5.2662758797604186 0 0 0
379 0 1 -1.1794 4.893642539480402 4.655302506816739 6.868975963091041 0 0 0
380 0 2 0.5897 5.056158570302443 5.589886771534796 7.2343749903660255 0 0 0
306 0 2 0.5897 8.387588018274572 6.651813393383701 5.6258514092617915 -1 0 1
628 0 1 -1.1794 5.01210922052063 7.267326269518583 7.888037507714721 0 0 0
304 0 1 -1.1794 7.568594745857513 6.18574618920304 5.435352493082358 -1 0 1
305 0 2 0.5897 6.972408564827634 6.774067929113443 5.026036937049395 -1 0 1
53 0 2 0.5897 7.558428635606102 5.71564013407565 7.478827150968174 0 0 1
629 0 2 0.5897 5.502383653045337 8.108233044366978 7.781601855085775 0 0 0
630 0 2 0.5897 4.993085317445764 7.19146905930609 8.867732094183374 0 0 0
52 0 1 -1.1794 8.154241243964805 5.445197075257038 8.183526374305881 0 0 1
351 0 2 0.5897 8.238458617729083 8.613517455846463 6.740179862387422 1 0 0
727 0 1 -1.1794 11.202503178408485 5.103413730392221 7.609287625448826 0 0 0
728 0 2 0.5897 11.602049767501386 5.156357138962898 8.50489200652491 0 0 0
410 0 2 0.5897 12.972613320080946 5.1531929834683785 5.178282068012218 -1 0 0
729 0 2 0.5897 10.318785008746916 5.410622897920153 7.708873324680739 0 0 0
632 0 2 0.5897 13.117645077361477 7.546891234727771 7.807796668048241 0 0 0
354 0 2 0.5897 12.44967940595301 8.490870375812827 5.4221083676600355 1 0 0
316 0 1 -1.1794 11.295155458058376 8.48061961166621 8.362769453792046 0 1 0
349 0 1 -1.1794 9.155223084841447 8.455980123173141 6.573217179203154 1 0 0
317 0 2 0.5897 10.61118868693325 8.260654997524231 7.7093623406209675 0 1 0
633 0 2 0.5897 13.603960464748226 6.700385129894599 8.929651367971541 0 0 0
631 0 1 -1.1794 13.899946562638966 7.176339306016426 8.162908880371177 0 0 0
672 0 2 0.5897 15.916092930874933 5.838007779396735 5.387565869582864 -1 0 1
466 0 1 -1.1794 14.345241362688633 5.14838037342839 6.259908108619074 0 0 0
468 0 2 0.5897 14.283410193768583 5.810210280894035 6.926408035297059 0 0 0
814 0 1 -1.1794 16.54785516135665 8.04120173207669 7.439594137564205 -1 0 0
815 0 2 0.5897 15.616869294952835 8.04944407195428 7.477044644427451 -1 0 0
816 0 2 0.5897 16.831455715175053 8.489090548446509 6.64650114065847 -1 0 0
471 0 2 0.5897 16.823409428577726 6.548689314056666 8.893566454221247 0 0 0
830 0 2 0.5897 2.512619962898006 9.423639941940147 5.176313423071942 0 1 0
364 0 1 -1.1794 3.2169508032908234 12.149763731088157 5.944668284620187 0 0 0
120 0 2 0.5897 1.2449701693397477 12.39361411376045 6.055748801907864 1 0 0
365 0 2 0.5897 3.1877716473242947 11.806731494722987 6.823375126445626 0 0 0
118 0 1 -1.1794 0.37245926546306507 12.787501623898857 6.133680753957992 1 0 0
36 0 2 0.5897 2.427830577187998 10.056225009113636 8.118185207516145 0 0 0
34 0 1 -1.1794 2.9059909801781716 10.87750798802757 8.386169210111962 0 0 0
69 0 2 0.5897 0.442706156071709 9.74278639946564 4.854347881361275 1 0 1
509 0 2 0.5897 4.488513502100277 10.93985475991594 5.32505491771916 1 0 0
35 0 2 0.5897 2.3290852114526257 11.452503493628742 8.844246808887078 0 0 0
345 0 2 0.5897 6.914619353566512 9.788010741855176 7.7045727510027655 0 0 0
343 0 1 -1.1794 6.542765359674818 9.335109795331709 6.958756960159549 1 0 0
508 0 1 -1.1794 5.206364567310612 10.487947294852582 4.821226334808753 1 0 0
344 0 2 0.5897 6.018257933680396 9.87988682618037 6.370589125104233 1 0 0
765 0 2 0.5897 8.079542887426115 12.033850383248563 8.500854554750134 0 0 0
763 0 1 -1.1794 7.217639439573336 12.441016668145304 8.275146229279876 0 0 0
767 0 2 0.5897 10.366019210093626 12.449323682085693 4.829922474932795 -1 0 0
352 0 1 -1.1794 13.07112954542663 9.19126376947635 5.683905315590942 1 0 0
350 0 2 0.5897 9.38875377537482 8.98764168549146 5.78682026427332 1 0 0
202 0 1 -1.1794 9.958331213503683 11.300648748447255 8.324687840881456 1 0 0
355 0 1 -1.1794 11.42616331982677 11.634541324632005 6.128975910427538 0 0 0
357 0 2 0.5897 12.009843390096202 10.924058793059077 5.900138206986049 0 0 0
204 0 2 0.5897 9.636088998514694 10.396499727478023 8.41763495428504 1 0 0
356 0 2 0.5897 10.85350266551879 11.4228843302521 6.91935665875894 0 0 0
590 0 2 0.5897 13.50438848779421 10.127933439941318 7.385983270601854 0 0 1
18 0 2 0.5897 13.083330296953566 12.269711493799019 8.622279761328313 0 0 0
353 0 2 0.5897 13.688444979754522 9.146913210320417 4.975456592880976 1 0 0
68 0 2 0.5897 17.13893749856851 10.84408887291648 5.22136622662102 -1 0 1
67 0 1 -1.1794 17.27793327277785 9.893314585081788 5.067403736413018 -1 0 1
591 0 2 0.5897 14.76108480181227 11.017159378222232 7.566890393632104 0 0 1
589 0 1 -1.1794 13.903218392287643 10.74238218794244 7.951587959257274 0 0 1
538 0 1 -1.1794 16.42737971686668 11.86656035125515 8.100039131037269 -1 0 0
540 0 2 0.5897 17.17381295592238 12.354160747060295 7.764558972191388 -1 0 0
385 0 1 -1.1794 14.919238459460095 12.436582113900853 5.551201084895919 0 -1 0
387 0 2 0.5897 15.33372180858932 12.225712302775255 6.393963381437154 0 -1 0
539 0 2 0.5897 16.837172361086665 11.253244233224779 8.765574312884079 -1 0 0
803 0 2 0.5897 17.140005552742885 9.32461693933117 8.940005955597403 -2 0 0
366 0 2 0.5897 3.606512276870872 12.969885356617183 6.015578368199112 0 0 0
341 0 2 0.5897 1.0333265138156023 16.524363879641168 5.31201819498013 1 -1 1
228 0 2 0.5897 3.4039261834693653 15.284673360814203 6.086151219559169 0 1 1
292 0 1 -1.1794 2.62483317342098 15.761946697283664 7.6525694287841945 0 -1 0
293 0 2 0.5897 1.740132552016886 15.973856501378917 7.411195004314168 0 -1 0
294 0 2 0.5897 2.625268157543266 15.627143081247027 8.621130163837257 0 -1 0
119 0 2 0.5897 0.33459770053983623 13.393444112612837 5.391898384454624 1 0 0
226 0 1 -1.1794 3.9891842810059037 14.753638844457374 5.51974989518026 0 1 1
588 0 2 0.5897 4.303720442621327 16.671276225662982 8.143799556694136 0 0 -1
764 0 2 0.5897 7.411695274344081 12.936696757498963 7.440776225617754 0 0 0
166 0 1 -1.1794 6.052173999026259 16.640780044896527 4.651135886787058 0 0 1
227 0 2 0.5897 4.856775975122549 15.15436291942414 5.600888887203727 0 1 1
658 0 1 -1.1794 7.939767870143613 16.42882596647775 6.947508497242466 0 -1 0
660 0 2 0.5897 7.40476124761394 16.82764496284056 6.212863960410238 0 -1 0
659 0 2 0.5897 7.702637472348827 16.87724347748741 7.789411214099138 0 -1 0
259 0 1 -1.1794 7.739822933756901 13.888046327976943 6.129879996751002 -1 0 1
261 0 2 0.5897 7.870100927398632 14.67443275716177 6.726339289540286 -1 0 1
245 0 2 0.5897 6.620667267992189 14.036908511757689 8.814788305305797 1 0 1
260 0 2 0.5897 8.554474156125371 13.791684376836052 5.589857789174239 -1 0 1
246 0 2 0.5897 6.137055500672704 15.586593752837791 8.754366858666334 0 0 1
146 0 2 0.5897 10.997130941707473 16.212422035206544 8.548060571525863 1 0 0
147 0 2 0.5897 11.84876713443962 14.974421377688113 8.768603687743134 1 0 0
440 0 2 0.5897 12.262205814825109 14.921481300824535 5.338477940612724 0 0 1
441 0 2 0.5897 12.29633368854054 13.418604990825369 5.902452330972854 0 0 1
439 0 1 -1.1794 12.726394929346132 14.289285140052696 5.910339499462853 0 0 1
386 0 2 0.5897 14.465214773375031 13.26120255805016 5.816814957230702 0 -1 0
100 0 1 -1.1794 17.375774234161305 15.237729661558635 7.6552259017615265 1 -1 0
101 0 2 0.5897 17.773904305916446 14.477015746171682 7.185309098572713 1 -1 0
66 0 2 0.5897 14.306251422498518 15.621645287438982 6.533285368972129 -1 -1 0
102 0 2 0.5897 16.601956143049783 15.59325962942041 7.092610413973399 1 -1 0
64 0 1 -1.1794 14.942056342922 16.358735721944555 6.691895814687258 -1 -1 0
65 0 2 0.5897 14.397779873124389 16.905512262946225 7.22009418779729 -1 -1 0
342 0 2 0.5897 0.9169476120869928 17.9370343913073 5.035883386828421 1 -1 0
340 0 1 -1.1794 1.445964331733429 17.40364886735278 5.603430241558718 1 -1 0
812 0 2 0.5897 3.033585049452333 18.02000734789723 5.220093725697595 -1 0 0
811 0 1 -1.1794 3.8976949345644356 18.388103979027857 5.13912179290542 -1 0 0
813 0 2 0.5897 4.1498508836820545 18.776861561811316 5.9728143012611215 -1 0 0
176 0 2 0.5897 1.634413213884063 18.68979107241338 8.459584691753745 -1 1 0
158 0 2 0.5897 3.5298789390457763 19.912277790316395 8.708620890226804 1 1 -1
175 0 1 -1.1794 0.8040794575233665 18.684648430214626 7.931809239128239 0 1 0
43 0 1 -1.1794 0.7109482607225379 20.78076083005227 5.746479522986443 0 0 0
44 0 2 0.5897 0.6829250445304303 20.2287608940926 6.513180612022924 0 0 0
177 0 2 0.5897 0.9781047693493464 18.021581467164275 7.2033627825289726 0 1 0
586 0 1 -1.1794 5.1113141483058735 17.071209978342967 8.471746110543213 0 0 -1
573 0 2 0.5897 8.027645329877863 20.975589084897535 6.820393399997292 0 0 0
168 0 2 0.5897 5.468183626212987 17.38560976628349 4.817816968329499 0 0 1
281 0 2 0.5897 5.301764254061286 20.911687828628395 7.579490605898951 0 -1 0
800 0 2 0.5897 9.089260644843819 19.056017726509385 5.49333757993961 1 0 1
664 0 1 -1.1794 6.08400658629245 19.019889276576205 6.874591457864258 1 0 0
665 0 2 0.5897 7.052696458063304 19.087793975387022 6.938090868041534 1 0 0
666 0 2 0.5897 5.767284572594755 18.338583758677093 7.518949687563517 1 0 0
799 0 1 -1.1794 8.875649367381806 19.481168615243945 6.339037210144075 1 0 1
127 0 1 -1.1794 10.734645436860378 17.141793145622685 6.948312791412802 0 0 0
128 0 2 0.5897 10.904326410557537 17.257952438627957 5.989010943852589 0 0 0
777 0 2 0.5897 12.429854981872175 17.766076520323523 7.809395509825115 0 0 1
129 0 2 0.5897 9.731910382223258 17.076537208172436 7.000054719669439 0 0 0
775 0 1 -1.1794 13.165801340444816 17.876199448855765 8.501723546042955 0 0 1
801 0 2 0.5897 9.736709606657481 19.950640829417175 6.556897931162921 1 0 1
97 0 1 -1.1794 11.722594625245438 20.484365652059022 5.724051274096546 -1 -1 0
99 0 2 0.5897 12.578081455907256 20.138404202194703 6.115911257505477 -1 -1 0
757 0 1 -1.1794 15.380784970723903 18.64091860029808 4.822905883725058 0 -1 0
758 0 2 0.5897 15.307588431612915 17.851823132146542 5.323180297206387 0 -1 0
607 0 1 -1.1794 14.303921560287591 20.596670473951946 6.672832762699407 0 0 1
681 0 2 0.5897 16.815502887180976 19.309480075164707 8.498938190234108 0 -1 0
680 0 2 0.5897 15.520244707886848 19.727658331097473 7.944395556149982 0 0 0
609 0 2 0.5897 14.87480017735939 20.43801906359366 5.898088607334321 0 0 1
679 0 1 -1.1794 15.978333987212642 19.620897572176382 8.81695150664606 0 -1 0
698 0 2 0.5897 4.247344043205279 1.231550856275344 11.264226142264413 0 0 1
486 0 2 0.5897 3.9236489434289528 2.894143500066313 9.45290404024192 1 1 0
235 0 1 -1.1794 0.8462196233933504 4.341106208275086 12.41287304670683 1 1 0
809 0 2 0.5897 3.2095338497511388 1.9946003959865495 13.2649506787425 0 1 -1
835 0 1 -1.1794 2.9885889716271943 4.107739868402144 8.94747213971151 0 1 0
697 0 1 -1.1794 4.087344444734447 0.6782443254861588 12.00153886426287 0 0 1
236 0 2 0.5897 1.2006087020137506 3.543849667737989 12.75811303075548 1 1 0
484 0 1 -1.1794 4.5344113102940184 2.361228717980203 9.950013320000922 1 1 0
567 0 2 0.5897 1.9986774629124764 0.4248683148415022 11.858649671829664 0 0 0
748 0 1 -1.1794 7.822756584492396 2.9434234107112753 9.26433708812582 0 1 0
485 0 2 0.5897 5.298184468746463 2.8932174940534545 10.129378642964644 1 1 0
335 0 2 0.5897 7.396334171840554 1.6449664518745581 10.835458219098456 0 1 -1
336 0 2 0.5897 6.724242792562354 0.3806092670942455 11.317144258148131 0 1 -1
334 0 1 -1.1794 7.6026578515924035 0.6933575814028242 10.991350128730923 0 1 -1
412 0 1 -1.1794 6.7274306885392905 3.5670538297780605 12.127941844593987 0 0 0
414 0 2 0.5897 6.098964658937642 4.125168721634836 12.717789793519136 0 0 0
413 0 2 0.5897 7.614077342431338 3.8017756226916273 12.498679859546622 0 0 0
562 0 1 -1.1794 9.5648379686123 3.206334564532682 11.546590811177825 -1 1 -1
563 0 2 0.5897 9.159069054511821 2.8959557898348143 10.708997432304802 0 1 -1
564 0 2 0.5897 10.498692870476994 2.8820851369940983 11.571336101251527 -1 1 -1
731 0 2 0.5897 12.336492491915893 2.342760872259544 10.482682641702885 -1 0 0
730 0 1 -1.1794 12.179203741880094 2.3793650625282896 11.486237143763388 -1 0 0
732 0 2 0.5897 12.445101930661169 1.470884292679409 11.836024336550516 -1 0 0
774 0 2 0.5897 9.201883958784618 0.5640260769567018 12.079722399438259 1 0 -1
502 0 1 -1.1794 13.403290992738096 0.504542969374446 12.975996327789296 0 -1 0
237 0 2 0.5897 17.711903563588812 3.9892000389951736 12.172733804686755 0 1 0
377 0 2 0.5897 17.866716432267502 0.6342557791879904 10.36283443273134 0 2 0
783 0 2 0.5897 17.23049239648136 2.5593858057588146 9.400182014077611 1 0 0
782 0 2 0.5897 17.151206997586186 4.037265922749506 9.223397233303864 1 0 0
823 0 1 -1.1794 16.256550758975614 2.7277574272098026 12.067194200636521 0 0 0
376 0 1 -1.1794 17.031255625218137 0.948557028942166 9.91883897417149 0 2 0
824 0 2 0.5897 16.542482868256656 2.0104680624105846 11.446389967800574 0 0 0
675 0 2 0.5897 13.578969300824426 3.4851557288563253 11.532461701997537 -1 0 1
673 0 1 -1.1794 14.048293828507814 4.285966184177773 11.240053895871537 -1 0 1
674 0 2 0.5897 14.950659134424365 4.039996466769516 11.216728689409818 -1 0 1
825 0 2 0.5897 16.002381067317625 2.262304403589768 12.883747706426973 0 0 0
837 0 2 0.5897 2.8522122194351045 4.944889315483333 9.43606092146921 0 1 0
339 0 2 0.5897 1.4910180927069316 5.488355477830909 11.097761368915025 1 1 0
338 0 2 0.5897 2.7052109906162984 6.430347198606064 10.992151635997649 1 1 0
337 0 1 -1.1794 1.8617353124813767 6.240049554838267 10.63525567240971 1 1 0