LAMMPS (29 Sep 2021 - Update 2)
  using 1 OpenMP thread(s) per MPI task
plugin load libdeepmd_lmp.so
Loading plugin: deepmd pair style v2.0 by Han Wang
Loading plugin: compute deeptensor/atom v2.0 by Han Wang
Loading plugin: fix dplr v2.0 by Han Wang
echo both

include		in.partitions
variable        pid world 0
include		in.temp
variable        temperature equal 265
variable        tempDamp equal 0.100
include		in.pressure
variable        pressure equal 986.923
variable        pressureDamp equal 1.0 # This is 1 ps
include		in.seed
variable        seed world 745823

units           metal
atom_style	full
include		in.box
read_data       water.data
Reading data file ...
  orthogonal box = (0.0000000 0.0000000 0.0000000) to (18.207573 21.446115 22.213196)
  1 by 1 by 1 MPI processor grid
  reading atoms ...
  864 atoms
  reading velocities ...
  864 velocities
Finding 1-2 1-3 1-4 neighbors ...
  special bond factors lj:    0        0        0       
  special bond factors coul:  0        0        0       
     0 = max # of 1-2 neighbors
     0 = max # of 1-3 neighbors
     0 = max # of 1-4 neighbors
     1 = max # of special neighbors
  special bonds CPU = 0.000 seconds
  read_data CPU = 4.328 seconds
include 	in.setup
variable	out_freq equal 500
variable	out_freq2 equal 500

timestep        0.0005

neigh_modify    delay 7 every 1

include         in.deepmd
# This is deepMD model

# create groups ###
#group ox type 2
#group hy type 1

mass 2 15.999
mass 1 1.008

pair_style      deepmd ../graph.pb
pair_coeff      * *

bond_style      none
angle_style     none
dihedral_style  none
improper_style  none
neigh_modify exclude none


neighbor        2.0 bin
neigh_modify    every 10 delay 0 check no

thermo          ${out_freq}
thermo          500
thermo_style 	custom step temp pe etotal epair emol press lx ly lz xy xz yz vol pxx pyy pzz pxy pxz pyz cella cellb cellc cellalpha cellbeta cellgamma


restart 	${out_freq} restart.lmp.${pid} restart2.lmp.${pid}
restart 	500 restart.lmp.${pid} restart2.lmp.${pid}
restart 	500 restart.lmp.0 restart2.lmp.${pid}
restart 	500 restart.lmp.0 restart2.lmp.0


include         in.dump
dump            myDump all atom ${out_freq2} dump.water.${pid}
dump            myDump all atom 500 dump.water.${pid}
dump            myDump all atom 500 dump.water.0
dump            myDump2 all dcd ${out_freq2} dump.dcd
dump            myDump2 all dcd 500 dump.dcd
dump_modify     myDump append yes
dump_modify     myDump2 append yes


timer           timeout 23:50:00 every 1000
New timer settings: style=normal  mode=nosync  timeout=23:50:00

fix             2 all nph iso ${pressure} ${pressure} ${pressureDamp}
fix             2 all nph iso 986.923 ${pressure} ${pressureDamp}
fix             2 all nph iso 986.923 986.923 ${pressureDamp}
fix             2 all nph iso 986.923 986.923 1
fix             3 all temp/csvr ${temperature} ${temperature} ${tempDamp} ${seed}
fix             3 all temp/csvr 265 ${temperature} ${tempDamp} ${seed}
fix             3 all temp/csvr 265 265 ${tempDamp} ${seed}
fix             3 all temp/csvr 265 265 0.1 ${seed}
fix             3 all temp/csvr 265 265 0.1 745823
velocity 	all create ${temperature} ${seed} dist gaussian
velocity 	all create 265 ${seed} dist gaussian
velocity 	all create 265 745823 dist gaussian

run             2000000

CITE-CITE-CITE-CITE-CITE-CITE-CITE-CITE-CITE-CITE-CITE-CITE-CITE

Your simulation uses code contributions which should be cited:

- USER-DEEPMD package:

@article{Wang_ComputPhysCommun_2018_v228_p178,
  author = {Wang, Han and Zhang, Linfeng and Han, Jiequn and E, Weinan},
  doi = {10.1016/j.cpc.2018.03.016},
  url = {https://doi.org/10.1016/j.cpc.2018.03.016},
  year = 2018,
  month = {jul},
  publisher = {Elsevier {BV}},
  volume = 228,
  journal = {Comput. Phys. Commun.},
  title = {{DeePMD-kit: A deep learning package for many-body potential energy representation and molecular dynamics}},
  pages = {178--184}
}

CITE-CITE-CITE-CITE-CITE-CITE-CITE-CITE-CITE-CITE-CITE-CITE-CITE

Neighbor list info ...
  update every 10 steps, delay 0 steps, check no
  max neighbors/atom: 2000, page size: 100000
  master list distance cutoff = 8
  ghost atom cutoff = 8
  binsize = 4, bins = 5 6 6
  1 neighbor lists, perpetual/occasional/extra = 1 0 0
  (1) pair deepmd, perpetual
      attributes: full, newton on
      pair build: full/bin
      stencil: full/bin/3d
      bin: standard
Per MPI rank memory allocation (min/avg/max) = 7.215 | 7.215 | 7.215 Mbytes
Step Temp PotEng TotEng E_pair E_mol Press Lx Ly Lz Xy Xz Yz Volume Pxx Pyy Pzz Pxy Pxz Pyz Cella Cellb Cellc CellAlpha CellBeta CellGamma 
       0          265    -134.9383   -105.37715    -134.9383            0    24631.313    18.207573    21.446115    22.213196            0            0            0    8673.8466    24502.051    25408.025    23983.864     1102.964   -265.04585   -871.41783    18.207573    21.446115    22.213196           90           90           90 
     500    259.37174   -127.96423   -99.030925   -127.96423            0   -1971.3235    18.281366    21.533034    22.303224            0            0            0    8779.7372    558.13561   -4071.2224   -2400.8836    1184.4519   -1379.5359   -743.26308    18.281366    21.533034    22.303224           90           90           90 
    1000    268.51106   -126.13858   -96.185767   -126.13858            0     2389.721    18.289795    21.542962    22.313507            0            0            0    8791.8867    1477.7303    2885.1969    2806.2357   -1567.0092    937.18087   -1071.9578    18.289795    21.542962    22.313507           90           90           90 
    1500    252.01769   -125.96733   -97.854377   -125.96733            0    1318.5991    18.245561     21.49086    22.259541            0            0            0    8728.2507    850.26417   -674.50799    3780.0412    1341.2207   -484.76124   -39.692977    18.245561     21.49086    22.259541           90           90           90 
    2000    256.90498   -123.85817   -95.200029   -123.85817            0    306.43766    18.208008    21.446628    22.213727            0            0            0    8674.4688     275.7585    1523.0053   -879.45081   -2228.4698    341.28355   -243.80783    18.208008    21.446628    22.213727           90           90           90 
    2500    279.24313   -125.36159   -94.211594   -125.36159            0    1874.8861    18.218185    21.458615    22.226143            0            0            0    8689.0217    1140.2649    1152.1913    3332.2022    -1768.785   -1504.7748   -1080.9892    18.218185    21.458615    22.226143           90           90           90 
    3000    257.90567   -123.15583   -94.386062   -123.15583            0     284.6177    18.138268    21.364483    22.128644            0            0            0    8575.1752   -1133.8427    1395.3985    592.29725    -1771.072    1515.8071    2297.9879    18.138268    21.364483    22.128644           90           90           90 
    3500    258.21736   -124.49176   -95.687225   -124.49176            0   -495.53652    18.077596     21.29302    22.054625            0            0            0    8489.4119   -451.42709    287.18243   -1322.3649   -882.17817    261.70803   -3948.3368    18.077596     21.29302    22.054625           90           90           90 
    4000     263.9365    -125.8934   -96.450882    -125.8934            0   -954.75416    18.195949    21.432424    22.199015            0            0            0    8657.2448   -1625.6198    1767.2963   -3005.9389   -628.90152    1021.6828    -1452.439    18.195949    21.432424    22.199015           90           90           90 
    4500    256.12695   -124.70562   -96.134271   -124.70562            0    2186.3797    18.146668    21.374377    22.138892            0            0            0    8587.0941    1165.7906    2520.0262    2873.3223   -1389.8339    726.32651    -61.38984    18.146668    21.374377    22.138892           90           90           90 
    5000    264.91925   -124.58164   -95.029501   -124.58164            0    3486.7829    17.980268     21.17838    21.935885            0            0            0    8353.0306    1046.3052    4290.5354    5123.5082    2338.7487   -228.94242    2368.6033    17.980268     21.17838    21.935885           90           90           90 
    5500    259.25696     -126.094   -97.173497     -126.094            0    1893.9048    18.076604    21.291851    22.053414            0            0            0    8488.0138    2972.5256    774.11821    1935.0707    485.08985   -350.12349   -1887.1805    18.076604    21.291851    22.053414           90           90           90 
    6000    267.53076   -125.82955   -95.986092   -125.82955            0    1429.9655    18.158607    21.388439    22.153457            0            0            0    8604.0543     1096.962    258.15434    2934.7802   -850.72837    51.829155   -1579.3804    18.158607    21.388439    22.153457           90           90           90 
    6500    266.70627   -126.25015   -96.498666   -126.25015            0    1438.7994    18.039805    21.248507     22.00852            0            0            0    8436.2821    2356.0731    997.56194    962.76323    2967.0723     267.5895   -1609.4858    18.039805    21.248507     22.00852           90           90           90 
    7000     270.0376   -124.55073   -94.427629   -124.55073            0    812.03446    17.973159    21.170006    21.927211            0            0            0    8343.1256    524.32534   -914.15189    2825.9299   -459.40537    -926.9858    848.58602    17.973159    21.170006    21.927211           90           90           90 
    7500    269.98093   -124.73638   -94.619597   -124.73638            0    1668.3103     17.94264    21.134059    21.889978            0            0            0    8300.6973   -731.51892    2527.7961    3208.6539    132.39114     336.2275    896.07305     17.94264    21.134059    21.889978           90           90           90 
    8000    265.80137   -124.36555   -94.715006   -124.36555            0   -1049.0668    18.062994     21.27582     22.03681            0            0            0    8468.8565    -9.648477   -1995.5399   -1142.0121    905.23188   -2948.9537    92.242942    18.062994     21.27582     22.03681           90           90           90 
    8500    280.91441   -126.36419   -95.027765   -126.36419            0    267.66258     18.07514    21.290126    22.051628            0            0            0    8485.9518    448.13635    957.99695   -603.14557    1065.7882    2246.7054    239.05972     18.07514    21.290126    22.051628           90           90           90 
    9000    281.92615    -125.0863   -93.637015    -125.0863            0    2683.7724    17.978703    21.176536    21.933975            0            0            0    8350.8491    2751.4887    2580.8143    2719.0143   -1231.2401    750.59192    772.29601    17.978703    21.176536    21.933975           90           90           90 
    9500     273.3707   -124.01034    -93.51543   -124.01034            0   -289.10614    18.109179     21.33022    22.093156            0            0            0    8533.9848   -97.836607     210.9458   -980.42762    218.60417    561.94572    83.809589    18.109179     21.33022    22.093156           90           90           90 
   10000     275.4243   -123.71047   -92.986474   -123.71047            0    770.46013    18.033185    21.240709    22.000443            0            0            0    8426.9978   -1180.9203    4353.0409   -860.74019   -718.31917    -510.9441    1019.7862    18.033185    21.240709    22.000443           90           90           90 
   10500    287.22412   -124.21197   -92.171686   -124.21197            0    2107.6085    17.969733    21.165971    21.923032            0            0            0    8338.3563   -751.18113    5361.1949    1712.8116    1737.8559   -1516.0913   -1054.5216    17.969733    21.165971    21.923032           90           90           90 
   11000    273.72784   -124.72998    -94.19523   -124.72998            0   -1049.4724    18.052143    21.263039    22.023571            0            0            0    8453.6027    -1733.044   -3736.8738    2321.5005    1357.2604   -47.918272    334.83828    18.052143    21.263039    22.023571           90           90           90 
   11500    263.60361   -125.25481   -95.849429   -125.25481            0    4432.8497    17.988999    21.188664    21.946536            0            0            0    8365.2043    4718.9743    5120.6015    3458.9734    761.48441    2157.6221   -684.99461    17.988999    21.188664    21.946536           90           90           90 
   12000    280.45058   -126.22442   -94.939732   -126.22442            0   -1132.2732    18.047091    21.257089    22.017409            0            0            0    8446.5082    212.79338   -710.88649   -2898.7264    2024.8481    973.73485    350.05794    18.047091    21.257089    22.017409           90           90           90 
   12500    261.55126   -123.34987   -94.173431   -123.34987            0    1681.5116    18.044132    21.253604    22.013799            0            0            0    8442.3544   -133.35901    2698.1579    2479.7358   -1485.5378   -604.79342    632.23602    18.044132    21.253604    22.013799           90           90           90 
   13000    263.22401   -122.73131   -93.368278   -122.73131            0    -719.3924    18.016818    21.221431    21.980475            0            0            0     8404.073    1058.0927     549.2534   -3765.5233    85.826655   -790.76356   -569.00586    18.016818    21.221431    21.980475           90           90           90 
   13500    261.81357   -124.95742   -95.751721   -124.95742            0     1481.958    17.923504    21.111519    21.866632            0            0            0    8274.1674    2672.4572   -1053.7133      2827.13    2574.6298      1096.55   -588.12167    17.923504    21.111519    21.866632           90           90           90 
   14000    265.89836   -125.82741   -96.166052   -125.82741            0    546.05492    17.866614     21.04451    21.797226            0            0            0    8195.6291   -1137.0462   -656.50653    3431.7175   -868.58138    32.807908    2031.7106    17.866614     21.04451    21.797226           90           90           90 
   14500     256.0174   -125.33183   -96.772699   -125.33183            0   -344.89422    17.941937    21.133231    21.889121            0            0            0    8299.7222    494.58886    -133.5456   -1395.7259   -69.067752    62.441124   -2279.1666    17.941937    21.133231    21.889121           90           90           90 
   15000    268.88843   -125.59133   -95.596419   -125.59133            0    3015.0565    17.947389    21.139652    21.895772            0            0            0    8307.2901    1700.7743    2483.2867    4861.1085   -836.01835    210.69371   -64.087655    17.947389    21.139652    21.895772           90           90           90 
   15500    261.78097   -124.87846   -95.676394   -124.87846            0   -1550.6934    18.022819      21.2285    21.987797            0            0            0    8412.4743    -2122.203   -1526.2492   -1003.6279     142.6807    652.93998    58.900061    18.022819      21.2285    21.987797           90           90           90 
   16000    267.47939   -125.07237   -95.234646   -125.07237            0    2546.0327    17.908253    21.093556    21.848026            0            0            0    8253.0643     2237.172    1875.6689    3525.2572     1223.391    2291.3062   -829.08191    17.908253    21.093556    21.848026           90           90           90 
   16500    271.12361   -125.90729   -95.663045   -125.90729            0    86.890555     17.94323    21.134754    21.890699            0            0            0     8301.517   -410.98052    553.71718      117.935   -646.94632   -124.58395    1918.5219     17.94323    21.134754    21.890699           90           90           90 
   17000    268.16271   -125.12601   -95.212057   -125.12601            0    2223.8885    18.005532    21.208138    21.966707            0            0            0    8388.2903    3168.0234    4495.2109   -991.56881    -424.1174     1330.654   -2317.4076    18.005532    21.208138    21.966707           90           90           90 
   17500    266.73812   -124.24484     -94.4898   -124.24484            0   -266.78113    17.959914    21.154405    21.911052            0            0            0    8324.6941    3679.5624   -2375.2986   -2104.6072    141.62532    2065.4355    963.70057    17.959914    21.154405    21.911052           90           90           90 
   18000    257.66906   -125.12747   -96.384096   -125.12747            0    3125.2843    17.884465    21.065537    21.819005            0            0            0    8220.2198    7278.6773    46.020019    2051.1556   -921.67993   -736.08227   -406.67252    17.884465    21.065537    21.819005           90           90           90 
   18500    278.88603   -126.98726   -95.877103   -126.98726            0    1175.1568    17.935919    21.126143    21.881779            0            0            0    8291.3738    2521.7491    1761.6689   -757.94774    1028.4069    1595.7393    2108.1954    17.935919    21.126143    21.881779           90           90           90 
   19000    263.33515    -125.5424    -96.16697    -125.5424            0    990.86791    18.044447    21.253974    22.014183            0            0            0    8442.7962    1560.9733    539.38642    872.24404    867.54617   -2382.1497   -1553.2293    18.044447    21.253974    22.014183           90           90           90 
   19500    281.95388   -126.15569   -94.703307   -126.15569            0     175.3386    17.985327    21.184338    21.942056            0            0            0    8360.0821    1074.0679    2515.3501   -3063.4022    301.33618    1750.4617     408.5343    17.985327    21.184338    21.942056           90           90           90 
   20000       262.07   -126.38419   -97.149888   -126.38419            0    366.48265    17.944646    21.136422    21.892426            0            0            0    8303.4819   -879.29155    487.94045    1490.7991   -1542.8719    1696.6004   -737.64338    17.944646    21.136422    21.892426           90           90           90 
   20500    254.41822   -125.06062    -96.67988   -125.06062            0     2819.064    17.920766    21.108294    21.863292            0            0            0    8270.3758    5766.0481   -1389.8838    4081.0277   -2078.4636   -80.225427    1868.9748    17.920766    21.108294    21.863292           90           90           90 
   21000    261.07931   -126.50239   -97.378599   -126.50239            0    -753.6248    17.869068    21.047401    21.800221            0            0            0    8199.0075   -1839.1243   -1692.8562    1271.1061    681.92593    1350.0157   -1754.6397    17.869068    21.047401    21.800221           90           90           90 
   21500    258.89603   -126.63442   -97.754177   -126.63442            0    3632.7392    17.849801    21.024707    21.776715            0            0            0    8172.5148    736.11179    3812.7336    6349.3723     2640.566    -1747.824    262.90273    17.849801    21.024707    21.776715           90           90           90 
   22000    268.83846   -126.90849   -96.919151   -126.90849            0    958.40962    17.894525    21.077385    21.831278            0            0            0    8234.0984    883.21934    2483.8838   -491.87429   -1079.2849     1123.059    941.15958    17.894525    21.077385    21.831278           90           90           90 
   22500    260.58589   -125.84403   -96.775284   -125.84403            0    2551.0002    17.926519    21.115071    21.870311            0            0            0    8278.3444    1988.1379    4736.2657    928.59715    394.09497     603.3526    1595.4226    17.926519    21.115071    21.870311           90           90           90 
   23000    262.11579   -126.27532   -97.035912   -126.27532            0   -1439.5055    17.884104    21.065111    21.818564            0            0            0    8219.7217     -2649.74   -4413.0984    2744.3218    1109.8567   -55.409801   -193.52128    17.884104    21.065111    21.818564           90           90           90 
   23500    265.72278   -125.17952   -95.537747   -125.17952            0    1838.7992    17.795928    20.961251     21.71099            0            0            0    8098.7399     2597.721   -1732.0428    4650.7194   -419.56338    387.87601    -1872.528    17.795928    20.961251     21.71099           90           90           90 
   24000     278.6621   -124.90751   -93.822337   -124.90751            0   -994.39376    17.878541    21.058558    21.811777            0            0            0    8212.0532    1333.0475    -2184.256   -2131.9728   -3026.1752   -2319.1289    2879.1767    17.878541    21.058558    21.811777           90           90           90 
   24500    265.12147   -124.05522   -94.480521   -124.05522            0    1405.5695    17.908753    21.094145    21.848637            0            0            0    8253.7558    3813.1606    1808.8576   -1405.3098   -3776.3157    1920.6493   -1375.4943    17.908753    21.094145    21.848637           90           90           90 
   25000    281.02435   -124.33043   -92.981738   -124.33043            0    861.50786    17.795152    20.960338    21.710044            0            0            0    8097.6812   -921.37645    481.66341    3024.2366    46.827512    2565.4361    1199.9925    17.795152    20.960338    21.710044           90           90           90 
   25500    269.24144   -123.19208   -93.157796   -123.19208            0   -510.96236    17.928548    21.117461    21.872787            0            0            0    8281.1554    1563.0724    1275.6242   -4371.5838    1196.9632   -1834.8994    1180.7984    17.928548    21.117461    21.872787           90           90           90 
   26000    284.58744   -124.00589   -92.259735   -124.00589            0     1187.174    17.953907     21.14733    21.903725            0            0            0    8316.3451    -61.45789    1364.2826    2258.6973    133.42839    1071.9708   -867.29413    17.953907     21.14733    21.903725           90           90           90 
   26500    264.43505   -123.44522   -93.947089   -123.44522            0     1360.486    17.896927    21.080215    21.834209            0            0            0    8237.4154    1739.0316    2743.3202   -400.89375      1665.26   -1697.1124   -1972.7037    17.896927    21.080215    21.834209           90           90           90 
   27000    272.08973   -122.70916    -92.35714   -122.70916            0     1491.713     17.85651    21.032609      21.7849            0            0            0    8181.7332    1128.6286    1252.7044     2093.806    21.984345    459.45869    3814.7262     17.85651    21.032609      21.7849           90           90           90 
   27500    263.93202     -122.963   -93.520988     -122.963            0   -828.25914    17.868435    21.046655    21.799448            0            0            0    8198.1353    -981.0442   -1744.8519    241.11865   -2619.7023   -1465.2216   -1360.1686    17.868435    21.046655    21.799448           90           90           90 
   28000    254.02502   -123.48621   -95.149339   -123.48621            0    993.63628    17.933583    21.123391    21.878929            0            0            0    8288.1339    541.65799    225.27551    2213.9753    616.21591    1210.5948    552.41014    17.933583    21.123391    21.878929           90           90           90 
   28500    262.92983   -122.11895   -92.788732   -122.11895            0    2556.7204    17.991756    21.191911      21.9499            0            0            0    8369.0515    1623.8131    3013.2746    3033.0735   -628.34687    1469.2818   -337.64095    17.991756    21.191911      21.9499           90           90           90 
   29000    261.49893   -123.79155   -94.620953   -123.79155            0    2373.5164    17.926929    21.115553    21.870811            0            0            0    8278.9115    3832.2724    494.56361    2793.7133   -1620.2542   -2609.1384   -197.11067    17.926929    21.115553    21.870811           90           90           90 
   29500    273.52146   -123.34613   -92.834399   -123.34613            0    1854.7965    17.904305    21.088905     21.84321            0            0            0    8247.6069    4790.0514   -83.666436    858.00469   -51.067785    1945.3121   -2801.8061    17.904305    21.088905     21.84321           90           90           90 
   30000    288.27555   -123.34326   -91.185683   -123.34326            0    2580.8273    17.953651    21.147029    21.903412            0            0            0    8315.9894   -535.69204    5157.3109     3120.863   -50.058597   -1592.0612    -2354.982    17.953651    21.147029    21.903412           90           90           90 
   30500    269.18683   -122.50587   -92.477671   -122.50587            0   -1416.5702    18.031286    21.238472    21.998126            0            0            0    8424.3354   -543.42915   -618.99935    -3087.282   -117.35886    2181.2006   -785.82028    18.031286    21.238472    21.998126           90           90           90 
   31000     268.3139   -122.93236   -93.001543   -122.93236            0    3851.1058    17.823798    20.994079    21.744991            0            0            0      8136.85    5003.5041    6766.1441   -216.33081   -347.45267    2906.4095    2067.9953    17.823798    20.994079    21.744991           90           90           90 
   31500    271.31242   -124.39468   -94.129367   -124.39468            0     999.9765    17.806524    20.973733    21.723918            0            0            0     8113.216   -2854.0985    3260.7063    2593.3217   -719.29489     935.2495    328.44391    17.806524    20.973733    21.723918           90           90           90 
   32000    262.57427   -123.18692   -93.896365   -123.18692            0    1870.5658     17.87461    21.053929    21.806982            0            0            0    8206.6384    2052.8549    3202.7031    356.13947    165.63627    -1531.856   -1702.6864     17.87461    21.053929    21.806982           90           90           90 
   32500    273.62498   -124.67039   -94.147111   -124.67039            0    2794.1139    17.757179     20.91561    21.663716            0            0            0    8045.9528     2786.953    4391.6391    1203.7496    55.017738    1966.4684    740.51408    17.757179     20.91561    21.663716           90           90           90 
   33000    260.14753   -122.73378   -93.713934   -122.73378            0    1173.7231    17.785842    20.949371    21.698685            0            0            0     8084.978    -377.7117    2148.8416    1750.0395   -102.13982   -367.38844   -2039.7508    17.785842    20.949371    21.698685           90           90           90 
   33500    266.90852   -124.07313   -94.299085   -124.07313            0    2771.7801    17.826476    20.997233    21.748258            0            0            0    8140.5179    2306.3982    3255.0356    2753.9065    104.54454   -1472.7662   -1652.2769    17.826476    20.997233    21.748258           90           90           90 
   34000    265.27198    -126.0607   -96.469213    -126.0607            0    2092.3048    17.657406    20.798091    21.541994            0            0            0    7911.0891    1939.7311    282.16345    4055.0198     1966.383   -1257.0389     1726.407    17.657406    20.798091    21.541994           90           90           90 
   34500    263.65829   -126.75518   -97.343701   -126.75518            0    463.51846    17.802027    20.968436    21.718431            0            0            0    8107.0703    540.97436    900.63237   -51.051338   -1934.6911    2.1691753    1494.7335    17.802027    20.968436    21.718431           90           90           90 
   35000    263.59522   -127.28945   -97.885004   -127.28945            0    183.48109    17.812989    20.981347    21.731804            0            0            0    8122.0551    1013.3335   -183.77241   -279.11785    906.53242   -1051.1244    49.905335    17.812989    20.981347    21.731804           90           90           90 
   35500    259.06638   -125.58949   -96.690249   -125.58949            0    2661.4944    17.724369    20.876964    21.623688            0            0            0    8001.4352    1650.0051    1525.4285    4809.0494    1301.5684    221.59668   -211.61855    17.724369    20.876964    21.623688           90           90           90 
   36000    263.33746   -125.64168   -96.265987   -125.64168            0    1699.4876    17.838848    21.011805    21.763352            0            0            0    8157.4787   -765.24046    1605.7903     4257.913   -1239.3413   -340.63787    1219.5465    17.838848    21.011805    21.763352           90           90           90 
   36500    263.19308    -125.6648   -96.305218    -125.6648            0    2299.6384    17.863632    21.040998    21.793589            0            0            0    8191.5266   -517.02701    4578.0098    2837.9324   -384.78898   -283.67513   -331.55343    17.863632    21.040998    21.793589           90           90           90 
   37000    272.62143   -126.57014   -96.158814   -126.57014            0    219.49594    18.000478    21.202184     21.96054            0            0            0    8381.2279    897.53465    994.86595   -1233.9128     2653.626    1030.7491    1087.3817    18.000478    21.202184     21.96054           90           90           90 
   37500    264.96583   -125.63496   -96.077627   -125.63496            0    2298.2379    17.917607    21.104574    21.859438            0            0            0    8266.0036    4714.2447    826.07804     1354.391    1001.9371     129.7564   -862.46068    17.917607    21.104574    21.859438           90           90           90 
   38000    263.81014   -124.20795    -94.77953   -124.20795            0   -181.05772    17.921334    21.108963    21.863985            0            0            0    8271.1625     1955.541    930.85803   -3429.5722   -804.22688     469.0321   -567.74222    17.921334    21.108963    21.863985           90           90           90 
   38500    263.88969   -124.07711   -94.639816   -124.07711            0    3015.4063    17.839288    21.012324    21.763889            0            0            0    8158.0831    4415.6723    200.70113    4429.8455    2035.8879   -1221.4296   -759.96756    17.839288    21.012324    21.763889           90           90           90 
   39000    263.31734   -124.09367   -94.720222   -124.09367            0    -1914.143    17.881966    21.062593    21.815956            0            0            0    8216.7745    2.4172597    155.99487   -5900.8413   -1030.8158    144.04749   -512.61507    17.881966    21.062593    21.815956           90           90           90 
   39500    265.22896   -124.13839   -94.551695   -124.13839            0    2036.7008    17.795378    20.960604    21.710319            0            0            0    8097.9899     531.5825    3913.0071    1665.5129    3407.6338    2976.2269   -734.69187    17.795378    20.960604    21.710319           90           90           90 
   40000    257.69977   -124.64828   -95.901486   -124.64828            0    -997.4937    17.911388    21.097249    21.851851            0            0            0    8257.3997   -728.98353   -1944.5918   -318.90575    658.54428    638.80214    766.53735    17.911388    21.097249    21.851851           90           90           90 
   40500    269.44903   -125.62415   -95.566706   -125.62415            0    664.70963    17.912699    21.098792     21.85345            0            0            0    8259.2125    990.61896    1803.7347   -800.22474    698.52622   -652.08373   -923.88037    17.912699    21.098792     21.85345           90           90           90 
   41000    269.92982   -124.72733   -94.616254   -124.72733            0    2306.7132    17.789332    20.953483    21.702943            0            0            0     8089.739    4030.8409    3891.8027   -1002.5041    3134.5701   -1202.8395   -522.53943    17.789332    20.953483    21.702943           90           90           90 
   41500     267.0891   -124.65883   -94.864635   -124.65883            0    1023.2644    17.929687    21.118802    21.874176            0            0            0    8282.7338   -294.45654     3963.801   -599.55128   -2646.8568   -510.89695   -984.94317    17.929687    21.118802    21.874176           90           90           90 
   42000    270.19843   -124.36541   -94.224363   -124.36541            0    46.491525    17.959577    21.154008    21.910641            0            0            0    8324.2256    447.43773   -1465.6002     1157.637    1166.4335    175.16671   -763.45032    17.959577    21.154008    21.910641           90           90           90 
   42500    268.13986   -123.53435   -93.622946   -123.53435            0    379.36491    17.758722    20.917427    21.665598            0            0            0    8048.0497    742.60176     1184.312   -788.81904    516.97087    2601.5137    1520.2348    17.758722    20.917427    21.665598           90           90           90 
   43000    267.63878   -123.00688    -93.15137   -123.00688            0    2339.8501    17.848335     21.02298    21.774926            0            0            0    8170.5009    680.76152    2500.1848    3838.6039    435.09821    419.93275    424.81254    17.848335     21.02298    21.774926           90           90           90 
   43500    266.71728   -124.35895   -94.606235   -124.35895            0    2229.7802    17.838883    21.011847    21.763395            0            0            0    8157.5268    1161.1055     3984.928     1543.307    1907.2645   -3149.2858    2438.6938    17.838883    21.011847    21.763395           90           90           90 
   44000    269.47044   -124.66726   -94.607424   -124.66726            0     1506.198    17.757588    20.916092    21.664215            0            0            0    8046.5081   -1496.5744    829.51204    5185.6563    2911.9323    359.21198    2161.6613    17.757588    20.916092    21.664215           90           90           90 
   44500    265.06322   -123.70861   -94.140411   -123.70861            0     318.4396     17.79885    20.964693    21.714555            0            0            0    8102.7304    583.38451   -841.16641    1213.1007   -220.70264   -30.220095    1029.2918     17.79885    20.964693    21.714555           90           90           90 
   45000    254.08865   -125.07997   -96.736003   -125.07997            0    -1125.333    17.875851     21.05539    21.808495            0            0            0    8208.3471    70.098145   -3878.4891    432.39196    2117.0777   -1049.2696      528.716    17.875851     21.05539    21.808495           90           90           90 
   45500    261.73904   -125.89869    -96.70131   -125.89869            0    2058.6139    17.829259    21.000512    21.751654            0            0            0    8144.3321    1245.1083    4514.7286    416.00468   -725.34271    68.376831    1500.2708    17.829259    21.000512    21.751654           90           90           90 
   46000    265.41175   -124.95625   -95.349171   -124.95625            0   -887.35599    17.881633      21.0622    21.815549            0            0            0    8216.3145    740.24659   -2999.4525    -402.8621   -1427.2319   -757.64876    822.60094    17.881633      21.0622    21.815549           90           90           90 
   46500    259.70235   -123.94404   -94.973849   -123.94404            0   -415.85763    17.848885    21.023628    21.775598            0            0            0    8171.2565    562.20628    292.79785    -2102.577    2740.3305   -2267.5262    36.272198    17.848885    21.023628    21.775598           90           90           90 
   47000    259.47928   -123.51155   -94.566242   -123.51155            0    928.74123    17.791347    20.955856    21.705401            0            0            0    8092.4876    535.38468    1666.4996    584.33938   -208.06342    1075.9625   -1113.5137    17.791347    20.955856    21.705401           90           90           90 
   47500    262.57014   -123.52607   -94.235973   -123.52607            0     4966.522     17.79009    20.954375    21.703867            0            0            0    8090.7723    4149.4543    5715.4573    5034.6543    1622.5972   -603.50187    123.12942     17.79009    20.954375    21.703867           90           90           90 
   48000    271.73758   -123.87833   -93.565596   -123.87833            0    2833.5379    17.884957    21.066117    21.819606            0            0            0    8220.8987    1883.6749     3036.962    3579.9767   -1510.3491   -1480.3275   -473.68586    17.884957    21.066117    21.819606           90           90           90 
   48500    275.40951   -125.34585   -94.623506   -125.34585            0   -1578.2698    17.934666    21.124667     21.88025            0            0            0    8289.6355   -2060.1053   -1037.7616   -1636.9424    1800.2489    681.19565   -859.70747    17.934666    21.124667     21.88025           90           90           90 
   49000    278.33876   -124.73283   -93.683725   -124.73283            0    3000.3974    17.837644    21.010387    21.761883            0            0            0    8155.8272    3284.4763    1426.2497    4290.4662   -1183.9993   -2071.8434    424.82797    17.837644    21.010387    21.761883           90           90           90 
   49500    289.91085   -123.97034   -91.630351   -123.97034            0    680.85134    17.886942    21.068454    21.822027            0            0            0    8223.6354    3771.3262     1260.931   -2989.7031   -1330.9591   -394.58697   -2573.5701    17.886942    21.068454    21.822027           90           90           90 
   50000     277.3104   -124.91093   -93.976538   -124.91093            0     978.8418    17.885687    21.066976    21.820496            0            0            0    8221.9045     787.2145    1724.9284    424.38248   -1899.5209    1891.9243   -616.05237    17.885687    21.066976    21.820496           90           90           90 
   50500    263.11733   -125.55311    -96.20198   -125.55311            0    770.43811    17.741198    20.896787     21.64422            0            0            0    8024.2488   -420.75341   -1045.5314    3777.5992     1030.136   -758.66839    -325.1142    17.741198    20.896787     21.64422           90           90           90 
   51000    266.81274   -125.00412    -95.24076   -125.00412            0    2848.3486    17.786666    20.950342     21.69969            0            0            0    8086.1016    1462.8858    4679.1543    2403.0058   -1772.7601    30.162007   -1888.7377    17.786666    20.950342     21.69969           90           90           90 
   51500    266.34072   -126.52339   -96.812682   -126.52339            0   -390.71965    17.937811    21.128371    21.884087            0            0            0    8293.9971   -709.38328     894.7332   -1357.5089    1418.1625   -418.33389   -1068.1103    17.937811    21.128371    21.884087           90           90           90 
   52000     257.7067   -127.48775   -98.740181   -127.48775            0    4702.8073    17.823398    20.993608    21.744504            0            0            0    8136.3028    6451.4834    4728.6566     2928.282   -303.59493    -2.252173   -1853.7962    17.823398    20.993608    21.744504           90           90           90 
   52500    270.27823   -126.13643   -95.986483   -126.13643            0   -2483.0413    17.880159    21.060465    21.813752            0            0            0    8214.2842   -4101.3413     833.9771   -4181.7598   -2345.8963    664.31635    931.39733    17.880159    21.060465    21.813752           90           90           90 
   53000    253.68647   -125.17375   -96.874646   -125.17375            0    1148.5179    17.936161    21.126428    21.882074            0            0            0    8291.7093    3390.0807   -337.56027    393.03336    698.32839   -1290.1706    337.16131    17.936161    21.126428    21.882074           90           90           90 
   53500    267.93624   -126.95051    -97.06182   -126.95051            0    1258.5985    17.812176    20.980389    21.730812            0            0            0    8120.9431    2362.7128   -523.61168    1936.6943    1969.0389    1503.5677    830.71452    17.812176    20.980389    21.730812           90           90           90 
   54000    267.46384   -125.69066   -95.854666   -125.69066            0    305.79217    17.829793     21.00114    21.752305            0            0            0    8145.0634    2472.1036    -674.2236   -880.50348   -605.30707    1415.9775     500.3949    17.829793     21.00114    21.752305           90           90           90 
   54500    244.61145   -126.15863   -98.871856   -126.15863            0    2191.1089     17.84647    21.020783    21.772651            0            0            0    8167.9395    3638.0883    1885.9706    1049.2677   -552.29496    -596.4341    2019.7797     17.84647    21.020783    21.772651           90           90           90 
   55000    263.02231   -127.18466   -97.844128   -127.18466            0    2863.5556     17.86788    21.046002    21.798771            0            0            0     8197.372    1365.5971    2090.0089    5135.0606   -40.635263   -2583.9181    371.75812     17.86788    21.046002    21.798771           90           90           90 
   55500    255.97354   -127.17765   -98.623411   -127.17765            0    2759.3276    17.899377    21.083101    21.837198            0            0            0    8240.7989    3916.6878    1345.5373    3015.7577   -1576.4547    2045.2457    168.24112    17.899377    21.083101    21.837198           90           90           90 
   56000    267.03197   -126.24669   -96.458869   -126.24669            0   -2557.2413     17.90491    21.089617    21.843947            0            0            0    8248.4425   -2424.2654   -1853.7701   -3393.6884    512.05091    82.127419    4911.8145     17.90491    21.089617    21.843947           90           90           90 
   56500    263.67645   -125.08916   -95.675652   -125.08916            0   -1211.5324    17.847458    21.021948    21.773857            0            0            0    8169.2973    2290.8642   -5100.4518   -825.00968     2437.883   -609.17141    992.60824    17.847458    21.021948    21.773857           90           90           90 
   57000    279.88573   -127.56282    -96.34115   -127.56282            0    1969.5871    17.741552    20.897204    21.644652            0            0            0    8024.7296    1480.7459    96.933666    4331.0818    11.122604    -1024.695   -407.20636    17.741552    20.897204    21.644652           90           90           90 
   57500    271.20756   -126.65468   -96.401068   -126.65468            0    2541.8177    17.816458    20.985433    21.736037            0            0            0    8126.8017    6842.4975   -322.15345     1105.109     665.4403   -1342.3927    2024.1224    17.816458    20.985433    21.736037           90           90           90 
   58000    259.12559   -124.94306   -96.037214   -124.94306            0   -1362.8987    17.879324    21.059482    21.812734            0            0            0    8213.1334   -3874.3088   -1114.6279    900.24077    2043.1753    1558.8018    2383.0853    17.879324    21.059482    21.812734           90           90           90 
   58500    269.83035   -126.48002   -96.380034   -126.48002            0   -378.39175    17.819927    20.989519    21.740268            0            0            0     8131.549    331.17543   -340.31658   -1126.0341   -243.41127   -2185.6912    2828.9942    17.819927    20.989519    21.740268           90           90           90 
   59000    257.43065    -124.3895   -95.672724    -124.3895            0    661.49129    17.841437    21.014856    21.766511            0            0            0     8161.032    667.97049   -352.70397    1669.2074    -896.0904     851.3016   -2022.3712    17.841437    21.014856    21.766511           90           90           90 
   59500    256.30983   -125.21805   -96.626303   -125.21805            0   -1067.4769    17.866716    21.044631    21.797352            0            0            0    8195.7707    -111.3846    634.04245   -3725.0885   -709.05739    877.01075   -305.76149    17.866716    21.044631    21.797352           90           90           90 
   60000    259.77534   -125.57182   -96.593489   -125.57182            0    4180.3467     17.85617    21.032208    21.784485            0            0            0    8181.2654    5201.7226    3089.9642    4249.3533   -703.10439    765.32593    727.43326     17.85617    21.032208    21.784485           90           90           90 
   60500    262.32564   -126.32362   -97.060797   -126.32362            0     1539.287    17.837418    21.010121    21.761608            0            0            0    8155.5177    446.38919   -966.10255    5137.5745    741.19244    667.23319    1680.2332    17.837418    21.010121    21.761608           90           90           90 
   61000    264.90781   -125.93035   -96.379484   -125.93035            0    2254.0682    17.797371    20.962951     21.71275            0            0            0      8100.71    2555.8503    -1072.724    5279.0781    3371.8412    3693.2919    1601.3792    17.797371    20.962951     21.71275           90           90           90 
   61500    274.34267    -126.7107   -96.107358    -126.7107            0    302.30111    17.760677     20.91973    21.667984            0            0            0    8050.7084   -643.11331    1218.0204    331.99621     808.4714   -73.080759   -1481.4815    17.760677     20.91973    21.667984           90           90           90 
   62000    280.57022   -127.33062   -96.032585   -127.33062            0    1517.5867    17.792242     20.95691    21.706493            0            0            0    8093.7092    1482.0569    2636.8703    433.83297    1980.5967   -1124.8877    756.34747    17.792242     20.95691    21.706493           90           90           90 
   62500    268.88648   -127.13969   -97.144998   -127.13969            0     869.7197    17.814435     20.98305    21.733568            0            0            0    8124.0335   -940.05117    1724.1659    1825.0444    1685.1169    65.777545    676.16929    17.814435     20.98305    21.733568           90           90           90 
   63000    275.39499   -125.68015   -94.959428   -125.68015            0     801.7204    17.795033    20.960197    21.709898            0            0            0    8097.5184    2509.6918   -1198.7859    1094.2553    800.25329   -716.17676   -1661.2478    17.795033    20.960197    21.709898           90           90           90 
   63500    255.88712   -125.88534   -97.340745   -125.88534            0   -395.97557    17.897319    21.080677    21.834687            0            0            0    8237.9567   -233.88232    884.91397   -1838.9584   -1739.2801    4721.5743   -1055.4187    17.897319    21.080677    21.834687           90           90           90 
   64000    269.19832   -125.83474   -95.805261   -125.83474            0    1779.8036    17.817006    20.986079    21.736706            0            0            0    8127.5523    1061.8405    3597.5173    680.05296   -423.06988   -464.74929   -433.60029    17.817006    20.986079    21.736706           90           90           90 
   64500    262.91332   -125.83259   -96.504208   -125.83259            0   -1732.3552    17.868142     21.04631    21.799091            0            0            0    8197.7321    858.01069   -960.14303   -5094.9331   -87.509103    328.07849    478.84759    17.868142     21.04631    21.799091           90           90           90 
   65000    250.19908   -126.46191   -98.551822   -126.46191            0   -118.06994    17.914817    21.101287    21.856035            0            0            0    8262.1429   -2880.5975   -518.23334     3044.621    1849.2912      1625.94    844.52433    17.914817    21.101287    21.856035           90           90           90 
   65500    265.51379   -126.75461   -97.136145   -126.75461            0   -1015.6465    17.908454    21.093792    21.848271            0            0            0    8253.3417   -590.42801   -281.44365   -2175.0677   -1068.7906     1165.912    5047.1023    17.908454    21.093792    21.848271           90           90           90 
   66000     273.9233     -124.947   -94.390442     -124.947            0   -205.03306    17.850636     21.02569    21.777733            0            0            0    8173.6609   -2750.3171    722.42295    1412.7949   -3278.5242   -1054.3977      43.3746    17.850636     21.02569    21.777733           90           90           90 
   66500    268.10203    -125.4217    -95.51452    -125.4217            0    1576.1711     17.78998    20.954246    21.703734            0            0            0    8090.6229    1567.4982    2919.5757    241.43952   -2302.8316   -1858.6823    -495.9767     17.78998    20.954246    21.703734           90           90           90 
   67000    254.10139    -125.7723   -97.426908    -125.7723            0    1645.3609    17.908576    21.093936    21.848421            0            0            0    8253.5111    948.28075    1742.9321    2244.8699   -2409.3599     2068.279   -525.01962    17.908576    21.093936    21.848421           90           90           90 
   67500    256.31327   -125.45874   -96.866606   -125.45874            0    848.29994    17.854257    21.029955    21.782151            0            0            0    8178.6361    1096.0788    1273.6282    175.19275    -620.7137    3701.0191    32.511276    17.854257    21.029955    21.782151           90           90           90 
   68000    259.84007   -126.35478   -97.369231   -126.35478            0    681.48133    17.810347    20.978235    21.728581            0            0            0    8118.4422    1037.6037   -152.08751    1158.9278   -2127.9327    33.435328   -2579.6729    17.810347    20.978235    21.728581           90           90           90 
   68500    260.22157   -125.70638   -96.678267   -125.70638            0   -1010.5418    17.937582    21.128101    21.883807            0            0            0    8293.6793   -3071.1624    2310.4168   -2270.8797    53.626854    2097.4994    1013.3667    17.937582    21.128101    21.883807           90           90           90 
   69000     254.5168    -126.5509    -98.15917    -126.5509            0   -1660.5945    17.882435    21.063145    21.816528            0            0            0    8217.4204    483.58282    -3432.114   -2033.2524    996.00039    1052.0367   -1353.3051    17.882435    21.063145    21.816528           90           90           90 
   69500    256.19875   -126.97426   -98.394901   -126.97426            0    4582.8117    17.778027    20.940167    21.689151            0            0            0    8074.3257    3169.6902    6978.6389     3600.106   -510.59643   -3058.5248    2386.5768    17.778027    20.940167    21.689151           90           90           90 
   70000    263.97652    -126.9867   -97.539725    -126.9867            0   -1847.6902    17.844724    21.018727    21.770521            0            0            0    8165.5429    9.0121208   -1620.6816    -3931.401    -632.1612    1920.2718   -935.84284    17.844724    21.018727    21.770521           90           90           90 
   70500    259.39777    -125.9144   -96.978186    -125.9144            0     417.2391    17.821475    20.991342    21.742157            0            0            0    8133.6688     422.7583   -2274.1495    3103.1085   -4086.6092   -284.07769   -1649.8362    17.821475    20.991342    21.742157           90           90           90 
   71000     265.3484   -126.69919   -97.099177   -126.69919            0    2933.6659    17.785455    20.948915    21.698213            0            0            0    8084.4499    1137.0697    3762.6177    3901.3104    839.41838   -250.98118     476.1231    17.785455    20.948915    21.698213           90           90           90 
   71500    262.78571   -125.97496   -96.660815   -125.97496            0   -683.44359    17.856119    21.032149    21.784423            0            0            0    8181.1955    303.31556   -1851.5758   -502.07054    707.78088    3.2239227    739.21436    17.856119    21.032149    21.784423           90           90           90 
   72000     284.0472   -123.88966   -92.203764   -123.88966            0    1489.5404    17.877067    21.056823    21.809979            0            0            0    8210.0227    466.15908   -1135.8146    5138.2769   -556.47992    449.79002   -952.51852    17.877067    21.056823    21.809979           90           90           90 
   72500    268.03252   -124.07776   -94.178329   -124.07776            0    -1486.529    17.838563     21.01147    21.763005            0            0            0    8157.0882   -3008.0689   -4329.2601    2877.7419   -303.29975    708.60107   -1717.9518    17.838563     21.01147    21.763005           90           90           90 
   73000    257.09548   -124.28835   -95.608965   -124.28835            0    1702.1166    17.770119    20.930852    21.679503            0            0            0    8063.5553    1820.3928    671.71927    2614.2378   -871.35234   -485.06469   -738.16307    17.770119    20.930852    21.679503           90           90           90 
   73500    266.96013   -125.11251   -95.332706   -125.11251            0    4459.8081    17.853639    21.029227    21.781397            0            0            0    8177.7871    6191.4048    301.82196    6886.1975    -551.9298   -227.19883    805.04171    17.853639    21.029227    21.781397           90           90           90 
   74000    268.39179    -126.2229   -96.283396    -126.2229            0   -2980.4285    17.886709    21.068179    21.821742            0            0            0    8223.3138   -2190.0371   -4518.8892   -2232.3593   -655.03334   -1976.0092   -289.10313    17.886709    21.068179    21.821742           90           90           90 
   74500    263.56823   -124.65967   -95.258239   -124.65967            0   -2464.0738    17.813755     20.98225    21.732739            0            0            0     8123.104   -1063.8303   -3158.7297   -3169.6614    218.58722    20.712031     186.5877    17.813755     20.98225    21.732739           90           90           90 
   75000    268.40237    -125.5827   -95.642013    -125.5827            0     1448.376    17.903866    21.088388    21.842674            0            0            0    8247.0001    3150.4416   -1796.1213    2990.8078    1871.5622    1076.5825    1002.4454    17.903866    21.088388    21.842674           90           90           90 
   75500    263.34471   -126.58748   -97.210984   -126.58748            0    289.81441    17.840783    21.014085    21.765713            0            0            0    8160.1342    3169.2854   -2124.6513   -175.19093    550.59211    290.73933   -776.13477    17.840783    21.014085    21.765713           90           90           90 
   76000    268.12514   -125.95739   -96.047629   -125.95739            0    2644.2898    17.822603    20.992672    21.743534            0            0            0    8135.2141    1099.7611    4052.1925    2780.9157   -2236.1405    -2130.392    1699.3277    17.822603    20.992672    21.743534           90           90           90 
   76500    241.05879    -126.7525   -99.862025    -126.7525            0   -2193.7831    17.858149     21.03454      21.7869            0            0            0    8183.9866   -1125.7606   -4737.1994   -718.38928    348.70695   -1388.8372    1188.5776    17.858149     21.03454      21.7869           90           90           90 
   77000    250.31558   -126.47323   -98.550153   -126.47323            0    3846.8432    17.782808    20.945798    21.694984            0            0            0    8080.8417    4811.9572    2283.4861    4445.0862    2235.6962     522.7753   -246.91054    17.782808    20.945798    21.694984           90           90           90 
   77500    262.34394   -125.92761   -96.662749   -125.92761            0   -823.34607    17.801181    20.967439    21.717399            0            0            0    8105.9147   -1629.6084   -211.81362   -628.61615    2198.2354    175.59847    121.69433    17.801181    20.967439    21.717399           90           90           90 
   78000    276.97835    -124.6646   -93.767247    -124.6646            0    2838.1117    17.874974    21.054358    21.807426            0            0            0      8207.14    4277.7423    171.39439    4065.1983    2245.8939    -1339.284    2843.5729    17.874974    21.054358    21.807426           90           90           90 
   78500    256.30965   -125.63829   -97.046564   -125.63829            0    3128.1233    17.803991    20.970749    21.720827            0            0            0    8109.7539    7212.7993    2297.1436   -125.57281    -1046.384   -638.61145    590.27436    17.803991    20.970749    21.720827           90           90           90 
   79000    257.13921   -125.60689   -96.922622   -125.60689            0    1544.0005    17.759538    20.918388    21.666594            0            0            0    8049.1592    472.00895    3414.8384    745.15413    1260.2987   -1606.0549   -338.28114    17.759538    20.918388    21.666594           90           90           90 
   79500    268.90841   -124.82884     -94.8317   -124.82884            0    2778.4611      17.6962    20.843785    21.589322            0            0            0    7963.3465    5773.6725    1506.0949    1055.6159   -378.25965    115.98694   -1923.6572      17.6962    20.843785    21.589322           90           90           90 
   80000    266.39388   -124.79653   -95.079895   -124.79653            0     344.3622    17.839484    21.012555    21.764129            0            0            0    8158.3522    2158.2024   -1634.3533     509.2375    1333.6368   -1020.8918    460.27989    17.839484    21.012555    21.764129           90           90           90 
   80500    271.70783   -126.22602   -95.916604   -126.22602            0    3942.8287     17.89969    21.083469    21.837579            0            0            0    8241.2305    6831.1645    4063.2705    934.05095   -1452.3326    538.90541    396.87876     17.89969    21.083469    21.837579           90           90           90 
   81000    256.73163   -125.45562   -96.816824   -125.45562            0   -3634.0443    17.816368    20.985327    21.735927            0            0            0    8126.6789    -6067.737   -2106.1256   -2728.2703    2743.9328   -1419.2907   -1676.4263    17.816368    20.985327    21.735927           90           90           90 
   81500    258.99246    -126.7211   -97.830097    -126.7211            0    850.49389    17.758961    20.917709     21.66589            0            0            0     8048.375    928.65784    267.25488    1355.5689   -100.88055   -1626.0568    1738.5436    17.758961    20.917709     21.66589           90           90           90 
   82000    264.34048   -127.68086   -98.193282   -127.68086            0    763.24808    17.850723    21.025792    21.777839            0            0            0    8173.7802    3916.7192    24.867909   -1651.8429   -1522.4011    302.41133    -88.47136    17.850723    21.025792    21.777839           90           90           90 
   82500    264.17874    -124.2279   -94.758367    -124.2279            0   -1355.6832    17.968686    21.164738    21.921755            0            0            0    8336.8989   -451.90482   -1243.0468    -2372.098   -1777.7807    8.9917349    458.88056    17.968686    21.164738    21.921755           90           90           90 
   83000    271.34953   -125.33651   -95.067059   -125.33651            0    778.32363    17.862573    21.039751    21.792297            0            0            0    8190.0706    1785.1816    -177.4263    727.21559   -532.63661   -1305.5611   -2824.0286    17.862573    21.039751    21.792297           90           90           90 
   83500    268.39604   -125.92777   -95.987786   -125.92777            0    3895.8252     17.84258    21.016201    21.767905            0            0            0    8162.5996    3655.2828    5043.9744    2988.2184   -1690.9306    1039.8807    3600.1815     17.84258    21.016201    21.767905           90           90           90 
   84000    278.00545   -125.75969    -94.74776   -125.75969            0     690.6245    17.874489    21.053786    21.806834            0            0            0    8206.4712    -283.0824    -1537.126    3892.0819    1451.2068    1751.8534    138.01819    17.874489    21.053786    21.806834           90           90           90 
   84500    266.29177   -125.60398   -95.898731   -125.60398            0    1057.8936    17.880787    21.061204    21.814517            0            0            0    8215.1486    5900.7795   -2431.6371   -295.46163   -1480.8067   -1980.4229   -629.14539    17.880787    21.061204    21.814517           90           90           90 
   85000    270.06197   -127.29352   -97.167699   -127.29352            0    2835.5715    17.870106    21.048624    21.801487            0            0            0    8200.4364    3372.1479    2817.4183    2317.1483   -2339.6562   -480.28463   -1162.5022    17.870106    21.048624    21.801487           90           90           90 
   85500    275.28479   -125.85393   -95.145502   -125.85393            0    687.57628     17.85495    21.030772    21.782997            0            0            0    8179.5891   -1535.7155    1821.4158    1777.0286    2693.1203    1494.5344   -452.93346     17.85495    21.030772    21.782997           90           90           90 
   86000     264.8333    -125.8626   -96.320043    -125.8626            0    2499.9839    17.844442    21.018395    21.770177            0            0            0    8165.1557    2420.3617    4552.3304    527.25967   -936.14062   -426.60641   -959.89489    17.844442    21.018395    21.770177           90           90           90 
   86500    259.37171   -126.67405   -97.740749   -126.67405            0   -331.86076    17.857154    21.033368    21.785686            0            0            0    8182.6182    852.00652    1897.4135   -3745.0024    1411.2977   -1198.0348   -1698.5744    17.857154    21.033368    21.785686           90           90           90 
   87000    246.46443   -125.22429   -97.730809   -125.22429            0   -6.9493422    17.869237    21.047599    21.800426            0            0            0    8199.2392   -649.74264   -2852.2215    3481.1161     1644.825    118.28406    1648.9483    17.869237    21.047599    21.800426           90           90           90 
   87500    263.22526   -126.05441   -96.691236   -126.05441            0    3153.8104    17.823969     20.99428      21.7452            0            0            0    8137.0841    5522.5651    319.40506    3619.4609   -3734.1003   -1078.5536   -291.61997    17.823969     20.99428      21.7452           90           90           90 
   88000    264.03158   -124.74761   -95.294488   -124.74761            0    -79.01196    17.838126    21.010955    21.762471            0            0            0    8156.4882   -1482.7827    2269.5178    -1023.771    1019.9017   -335.30955    422.87312    17.838126    21.010955    21.762471           90           90           90 
   88500    260.96145   -125.97153   -96.860885   -125.97153            0    2727.5966    17.790312    20.954637    21.704139            0            0            0    8091.0755    3904.3202     1155.443    3123.0268    675.23447   -1693.7574    591.87167    17.790312    20.954637    21.704139           90           90           90 
   89000     249.7156   -126.74463   -98.888477   -126.74463            0    1078.0314    17.850959    21.026071    21.778127            0            0            0    8174.1048    4551.5739     -197.362   -1120.1177   -159.69496   -1652.2892   -2284.2149    17.850959    21.026071    21.778127           90           90           90 
   89500    256.53627   -127.62092   -99.003909   -127.62092            0    -419.1079    17.811704    20.979834    21.730237            0            0            0    8120.2979    2328.8275   -1588.2158   -1997.9354   -1450.5164   -1282.1327   -806.68975    17.811704    20.979834    21.730237           90           90           90 
   90000    263.40058   -128.61238   -99.229653   -128.61238            0    1871.8377    17.615767    20.749045    21.491194            0            0            0    7855.2536    2505.6627   -1260.5616     4370.412   -382.25037   -64.761913   -44.408919    17.615767    20.749045    21.491194           90           90           90 
   90500    258.33033   -126.11806   -97.300925   -126.11806            0   -18.852889    17.848136    21.022746    21.774684            0            0            0    8170.2282    986.22171    232.11005   -1274.8904    470.91942    928.95355   -1111.8992    17.848136    21.022746    21.774684           90           90           90 
   91000    258.67266   -125.72219    -96.86687   -125.72219            0    685.60854     17.89838    21.081926    21.835981            0            0            0    8239.4213   -1136.4146    790.46802    2402.7722    998.05805   -1165.0539   -2208.8226     17.89838    21.081926    21.835981           90           90           90 
   91500    256.42304   -127.88628   -99.281907   -127.88628            0    440.10423    17.862477    21.039637     21.79218            0            0            0    8189.9377   -949.47973    285.33233    1984.4601   -4756.8569   -547.03723   -1746.1037    17.862477    21.039637     21.79218           90           90           90 
   92000    266.79909    -127.5027   -97.740864    -127.5027            0   -893.99463    17.818789    20.988178     21.73888            0            0            0    8129.9914    801.95112   -1732.1744   -1751.7606   -2132.1431    385.11136    393.62434    17.818789    20.988178     21.73888           90           90           90 
   92500    254.93292   -126.40676   -97.968612   -126.40676            0    2350.0367     17.79838     20.96414    21.713982            0            0            0    8102.0887    1930.2454    2353.9644    2765.9002     3177.913   -939.52932    456.65119     17.79838     20.96414    21.713982           90           90           90 
   93000    252.00115   -125.08431     -96.9732   -125.08431            0     2278.317     17.92524    21.113564     21.86875            0            0            0    8276.5714    4089.7218   -409.90308    3155.1324     232.9914    1907.8265   -1136.5112     17.92524    21.113564     21.86875           90           90           90 
   93500    261.32526   -125.65581   -96.504579   -125.65581            0   -728.96596    17.945068    21.136919    21.892941            0            0            0    8304.0678   -1447.3892   -2337.1583    1597.6496    925.80512   -615.56226    1078.0334    17.945068    21.136919    21.892941           90           90           90 
   94000    262.88048   -127.16112   -97.836407   -127.16112            0    3859.5913    17.824241      20.9946    21.745532            0            0            0    8137.4565    2677.1589    5201.4658    3700.1492   -1033.9864   -2873.9468    961.76205    17.824241      20.9946    21.745532           90           90           90 
   94500    255.13297   -126.83419   -98.373718   -126.83419            0    1641.2533    17.875796    21.055326    21.808429            0            0            0    8208.2722     1140.536   -306.41874    4089.6428    886.59429   -455.75347   -853.29829    17.875796    21.055326    21.808429           90           90           90 
   95000    259.10506   -128.14783   -99.244268   -128.14783            0   -1649.0016    17.898896    21.082534    21.836611            0            0            0    8240.1342   -2018.5842    187.01373   -3115.4345    1354.6244   -420.16919    74.427562    17.898896    21.082534    21.836611           90           90           90 
   95500    265.15776   -126.88655   -97.307801   -126.88655            0    9.9673042    17.828073    20.999115    21.750207            0            0            0    8142.7069    2403.6508   -1790.6384    -583.1105    372.04088   -464.62747    1312.0647    17.828073    20.999115    21.750207           90           90           90 
   96000    270.89778   -125.53768   -95.318624   -125.53768            0    3475.3729    17.935006    21.125067    21.880665            0            0            0    8290.1071     1995.319    3805.7688     4625.031    4712.5387   -5051.4806   -1458.7838    17.935006    21.125067    21.880665           90           90           90 
   96500    270.65991   -126.00076   -95.808244   -126.00076            0   -537.00144     17.92742    21.116132     21.87141            0            0            0    8279.5925    723.08435   -1967.2909   -366.79777   -2130.2107    890.87957    1396.2059     17.92742    21.116132     21.87141           90           90           90 
   97000    267.65547   -126.36883   -96.511458   -126.36883            0    223.35085    17.885764    21.067066    21.820589            0            0            0    8222.0104   -837.65204    477.01807    1030.6865    3793.3118   -189.55806    326.33028    17.885764    21.067066    21.820589           90           90           90 
   97500    270.19105    -127.0938   -96.953586    -127.0938            0    1729.0968    17.801929     20.96832    21.718311            0            0            0    8106.9357    694.75869    1266.3975    3226.1342   -312.40674    210.85765    2137.3413    17.801929     20.96832    21.718311           90           90           90 
   98000    253.44612   -126.20466   -97.932364   -126.20466            0   -750.72882    17.949306     21.14191    21.898111            0            0            0    8309.9522   -1836.2829    4067.1841   -4483.0877    -142.8395   -113.35736   -240.23306    17.949306     21.14191    21.898111           90           90           90 
   98500    267.41273   -126.95897    -97.12868   -126.95897            0    1776.8557    17.913997    21.100322    21.855035            0            0            0    8261.0088    1472.3322    58.783831    3799.4511    1530.2737    2107.4941   -1041.0822    17.913997    21.100322    21.855035           90           90           90 
   99000    261.83298   -126.75815   -97.550287   -126.75815            0    1926.2704    17.919999    21.107391    21.862356            0            0            0     8269.314    1101.8748   -320.74424    4997.6806    -714.2493   -420.10103   -2660.9111    17.919999    21.107391    21.862356           90           90           90 
   99500    271.54475   -124.66464   -94.373415   -124.66464            0   -1599.4783    17.886662    21.068124    21.821685            0            0            0    8223.2492    775.94507   -1705.1881   -3869.1917   -3835.3511   -2255.5943    177.55549    17.886662    21.068124    21.821685           90           90           90 
  100000    265.35259   -124.99895   -95.398467   -124.99895            0    4744.0034    17.784497    20.947788    21.697045            0            0            0    8083.1445     4891.466    3468.9855    5871.5586   -2507.7494    1018.6253   -700.47542    17.784497    20.947788    21.697045           90           90           90 
  100500    267.94578    -125.3723   -95.482546    -125.3723            0    2133.3694    17.783979    20.947177    21.696412            0            0            0    8082.4373    6447.9289    1620.7561   -1668.5769   -426.87687   -311.39213    369.80534    17.783979    20.947177    21.696412           90           90           90 
  101000    265.19752   -125.87253   -96.289345   -125.87253            0    3215.9013    17.866244    21.044074    21.796775            0            0            0      8195.12    2897.8031    3859.9385    2889.9622   -1238.5197   -268.32776   -748.10198    17.866244    21.044074    21.796775           90           90           90 
  101500    256.58827   -124.51347   -95.890659   -124.51347            0    2860.5293    17.866792     21.04472    21.797444            0            0            0    8195.8744    3293.0918     4033.756    1254.7401    249.09018   -2148.0541    2036.3363    17.866792     21.04472    21.797444           90           90           90 
  102000    260.12365    -124.5171   -95.499916    -124.5171            0   -460.72169     17.79927    20.965188    21.715067            0            0            0    8103.3037   -2215.5875   -633.29948    1466.7219    2333.9712    2879.7589   -745.68035     17.79927    20.965188    21.715067           90           90           90 
  102500    258.62601   -124.95216   -96.102035   -124.95216            0   -1858.0484    17.770529    20.931335    21.680003            0            0            0    8064.1131   -4752.6709    1099.7166   -1921.1909   -522.49621   -29.718169   -262.94989    17.770529    20.931335    21.680003           90           90           90 
  103000    265.32076   -125.35695   -95.760022   -125.35695            0    2289.8863    17.796269    20.961653    21.711406            0            0            0    8099.2058    1291.4051    1184.3338    4393.9201    589.30074   -2023.1363    4.5538091    17.796269    20.961653    21.711406           90           90           90 
  103500    262.11634    -126.0381   -96.798623    -126.0381            0    1247.8347    17.847147    21.021581    21.773478            0            0            0    8168.8701    3739.4046    231.45794   -227.35847    594.17148   -2295.3039    1504.8575    17.847147    21.021581    21.773478           90           90           90 
  104000      264.649   -125.33059   -95.808591   -125.33059            0    3940.1792    17.852301    21.027652    21.779765            0            0            0    8175.9491     644.3742    3943.6284     7232.535    605.94219     576.0396   -785.94063    17.852301    21.027652    21.779765           90           90           90 
  104500     252.7378   -124.80049   -96.607209   -124.80049            0   -142.20465    17.881134    21.061613    21.814941            0            0            0    8215.6274   -314.51805   -349.04678    236.95088   -2448.5597    2394.9527    846.43505    17.881134    21.061613    21.814941           90           90           90 
  105000    270.08759   -124.44473   -94.316051   -124.44473            0    1820.5606    17.853788    21.029403    21.781579            0            0            0    8177.9915    3446.6895    100.88632    1914.1058   -1116.6866    1158.9608   -1152.1927    17.853788    21.029403    21.781579           90           90           90 
  105500    270.33976   -124.75779   -94.600979   -124.75779            0   -54.818254    17.832398    21.004208    21.755483            0            0            0    8148.6333   -350.10652   -1794.2722     1979.924    740.52877    118.96217   -806.88398    17.832398    21.004208    21.755483           90           90           90 
  106000    271.87062   -126.18169   -95.854113   -126.18169            0    3477.8479    17.848371    21.023023    21.774971            0            0            0     8170.551    1887.5419    4571.3563    3974.6455   -869.59692    409.25912   -1610.1876    17.848371    21.023023    21.774971           90           90           90 
  106500    259.36044   -125.20631   -96.274267   -125.20631            0    603.01586    17.836193    21.008678    21.760113            0            0            0    8153.8373   -25.715941    622.79899    1211.9645    1829.0598   -1813.7964    1711.3914    17.836193    21.008678    21.760113           90           90           90 
  107000    259.35174   -125.12736   -96.196283   -125.12736            0    348.98669    17.887036    21.068564    21.822141            0            0            0    8223.7647    1218.2359   -1375.5059    1204.2301   -1395.9926    390.43963     3160.552    17.887036    21.068564    21.822141           90           90           90 
  107500    264.27698   -124.62896   -95.148465   -124.62896            0    4267.8267    17.819652    20.989195    21.739933            0            0            0    8131.1732    4181.8138     3494.125    5127.5412   -1665.9594    -1612.865   -642.39309    17.819652    20.989195    21.739933           90           90           90 
  108000    262.17742   -124.04898   -94.802695   -124.04898            0   -1220.1694    17.859392    21.036004    21.788416            0            0            0    8185.6952    819.46808   -612.89132   -3867.0851   -728.03036   -1570.9855    887.70566    17.859392    21.036004    21.788416           90           90           90 
  108500    273.67211   -124.85738    -94.32884   -124.85738            0    4232.7393    17.919498      21.1068    21.861745            0            0            0    8268.6202    5656.0786    4328.5275    2713.6118    777.22796   -1960.1156   -1595.4806    17.919498      21.1068    21.861745           90           90           90 
  109000    270.67929   -126.34345   -96.148768   -126.34345            0   -2765.9049    17.857724     21.03404    21.786381            0            0            0    8183.4023     63.23199    -5013.814   -3347.1327    513.74988    82.366436   -966.96188    17.857724     21.03404    21.786381           90           90           90 
  109500    265.61929   -125.22382   -95.593592   -125.22382            0    2686.1451    17.844882    21.018913    21.770714            0            0            0    8165.7604    4006.0058   -381.04181    4433.4714   -1267.6551    199.83746   -1946.8535    17.844882    21.018913    21.770714           90           90           90 
  110000    265.99455   -126.12878    -96.45669   -126.12878            0   -470.52656     17.89583    21.078922     21.83287            0            0            0       8235.9   -444.71086    83.567177    -1050.436   -932.64714   -2386.8925   -1571.5928     17.89583    21.078922     21.83287           90           90           90 
  110500    263.71317   -127.02594   -97.608335   -127.02594            0    1174.2454    17.860317    21.037093    21.789545            0            0            0    8186.9673    393.01846    731.10353    2398.6143    1352.3357    682.32009    1117.4193    17.860317    21.037093    21.789545           90           90           90 
  111000    267.77304   -126.08205   -96.211564   -126.08205            0    4216.3085    17.802108    20.968531     21.71853            0            0            0    8107.1811    4992.4063    3568.6591    4087.8603   -2021.6883   -3149.5454    251.85233    17.802108    20.968531     21.71853           90           90           90 
  111500    273.65125    -125.9313   -95.405094    -125.9313            0    1479.2972    17.889048    21.070935    21.824597            0            0            0    8226.5412    4085.5948    705.23243   -352.93579    2042.0229    1128.9556    915.14269    17.889048    21.070935    21.824597           90           90           90 
[...]
 1973500    272.21444   -127.02207    -96.65614   -127.02207            0    2695.2391    17.818056    20.987315    21.737986            0            0            0    8128.9884    1493.4118    2319.2765    4273.0291    2333.1883   -404.74797    2941.8282    17.818056    20.987315    21.737986           90           90           90 
 1974000    275.22714   -128.42602   -97.724019   -128.42602            0    2163.3346     17.85132    21.026496    21.778568            0            0            0     8174.601   -55.312046    3836.7816    2708.5341   -2075.2184   -1196.8853    168.74153     17.85132    21.026496    21.778568           90           90           90 
 1974500    267.03909   -128.01635   -98.227739   -128.01635            0   -1710.4095    17.866184    21.044004    21.796702            0            0            0     8195.038   -1166.8719   -1748.5921   -2215.7645    1243.9098    939.02601    1428.4086    17.866184    21.044004    21.796702           90           90           90 
 1975000    259.63936   -127.84646   -98.883298   -127.84646            0    3641.2567    17.712283    20.862729    21.608943            0            0            0    7985.0784    1090.6976    7475.3144     2357.758    123.67395   -1598.8875   -2164.5236    17.712283    20.862729    21.608943           90           90           90 
 1975500    254.52014   -126.97037   -98.578263   -126.97037            0    2043.5058    17.824959    20.995446    21.746408            0            0            0    8138.4402    3421.7427    1001.4556    1707.3192    1299.9723   -2262.5442    479.76403    17.824959    20.995446    21.746408           90           90           90 
 1976000    260.52216    -127.1697   -98.108064    -127.1697            0    1518.9353    17.903168    21.087566    21.841823            0            0            0    8246.0361   -650.88956    3591.3711    1616.3243    2655.6999    3149.3443   -748.56108    17.903168    21.087566    21.841823           90           90           90 
 1976500    263.28133   -127.35114   -97.981708   -127.35114            0    669.91591    17.869291    21.047663    21.800493            0            0            0    8199.3141    1976.8683    509.70736   -476.82792    2889.7193   -79.663718    224.47462    17.869291    21.047663    21.800493           90           90           90 
 1977000    257.59425   -126.97188   -98.236857   -126.97188            0   -87.948023    17.945322    21.137218    21.893251            0            0            0    8304.4207    439.63931    739.64533   -1443.1287    2345.8648   -1027.2169   -115.30096    17.945322    21.137218    21.893251           90           90           90 
 1977500    270.19548   -127.48321   -97.342502   -127.48321            0    -79.85985    17.875938    21.055493    21.808603            0            0            0     8208.468    2258.2934   -858.23366   -1639.6392    808.77634   -241.26106    2675.7642    17.875938    21.055493    21.808603           90           90           90 
 1978000    274.77449   -127.70679   -97.055277   -127.70679            0    2535.8056     17.83698    21.009606    21.761074            0            0            0     8154.917    4482.6621    1575.9139     1548.841    847.59832    606.48735    285.54958     17.83698    21.009606    21.761074           90           90           90 
 1978500    271.39599   -127.43778   -97.163153   -127.43778            0   -214.68364    17.887318    21.068897    21.822486            0            0            0    8224.1546    864.88609   -1883.7029    374.76594    1295.6749    1345.8746   -1912.1803    17.887318    21.068897    21.822486           90           90           90 
 1979000    262.26941   -127.50162   -98.245069   -127.50162            0    982.13192     17.79343     20.95831    21.707943            0            0            0    8095.3308   -665.22535     2424.158    1187.4631   -18.571775    224.41117    756.25083     17.79343     20.95831    21.707943           90           90           90 
 1979500    281.06827   -127.59953   -96.245946   -127.59953            0     1157.174    17.794097    20.959095    21.708756            0            0            0    8096.2405    287.14256    2724.5317    459.84776    522.57364    439.77674   -1545.1737    17.794097    20.959095    21.708756           90           90           90 
 1980000    264.12077   -125.44236    -95.97929   -125.44236            0   -1189.8269    17.887743    21.069397    21.823004            0            0            0    8224.7401    289.85183   -1818.0301   -2041.3025    551.04938  -0.57685619    199.43165    17.887743    21.069397    21.823004           90           90           90 
 1980500    274.99597   -127.13569   -96.459479   -127.13569            0    2175.7141    17.847526    21.022027    21.773939            0            0            0    8169.3898    3420.7013    2312.1097    794.33118   -348.63994    4622.0132   -280.62531    17.847526    21.022027    21.773939           90           90           90 
 1981000     282.7112   -127.23732   -95.700463   -127.23732            0    2311.0277    17.832301    21.004095    21.755366            0            0            0    8148.5014     3611.269    498.39996    2823.4142    1585.6207    975.35878    4201.5216    17.832301    21.004095    21.755366           90           90           90 
 1981500    263.65558   -125.95205   -96.540874   -125.95205            0   -1156.4636    17.899176    21.082864    21.836952            0            0            0    8240.5204    2007.8175   -3174.7838   -2302.4244    -974.0665      901.188   -512.78207    17.899176    21.082864    21.836952           90           90           90 
 1982000    272.76077   -125.93193   -95.505057   -125.93193            0    3398.5723    17.867946    21.046079    21.798852            0            0            0    8197.4628    3809.0377    2768.6235    3618.0557    466.04548   -642.89513    394.66682    17.867946    21.046079    21.798852           90           90           90 
 1982500    264.14759   -126.39755   -96.931491   -126.39755            0    3848.6583     17.84519    21.019276    21.771089            0            0            0    8166.1824    958.85702    4837.2355    5749.8823    1116.2059   -1099.0526   -576.39592     17.84519    21.019276    21.771089           90           90           90 
 1983000    272.20464   -126.56954   -96.204704   -126.56954            0    1777.2396    17.823849    20.994138    21.745053            0            0            0    8136.9194    1168.7638    5084.4051   -921.45013   -4821.1038    1363.0458    132.23877    17.823849    20.994138    21.745053           90           90           90 
 1983500    263.11468   -125.13014   -95.779298   -125.13014            0   -2216.6404    17.856901     21.03307    21.785377            0            0            0    8182.2707   -4485.9995    -1922.662   -241.25968    51.153745   -3413.7911   -510.09484    17.856901     21.03307    21.785377           90           90           90 
 1984000    258.64049   -124.78426   -95.932522   -124.78426            0   -1341.6454    17.808429    20.975976    21.726241            0            0            0    8115.8191   -380.64471   -2002.9638   -1641.3276   -1268.5139    983.11302   -872.05054    17.808429    20.975976    21.726241           90           90           90 
 1984500    278.78456    -125.6183   -94.519463    -125.6183            0    513.64784    17.783802    20.946969    21.696197            0            0            0    8082.1968   -389.56373    1003.7845    926.72275   -1058.8292    432.82958    2713.0794    17.783802    20.946969    21.696197           90           90           90 
 1985000    277.42832   -124.56898   -93.621435   -124.56898            0    3585.0946    17.838582    21.011493    21.763028            0            0            0    8157.1146    4150.2424    4689.3592    1915.6823   -2269.5325    1856.8807   -396.92816    17.838582    21.011493    21.763028           90           90           90 
 1985500    269.46543   -125.15182   -95.092545   -125.15182            0    2979.0746    17.755127    20.913193    21.661213            0            0            0    8043.1634   -768.82186     4944.132    4761.9136    437.90247     174.0663    932.09454    17.755127    20.913193    21.661213           90           90           90 
 1986000    266.41296   -126.27638   -96.557613   -126.27638            0    1247.6165     17.77827    20.940452    21.689447            0            0            0    8074.6559     2849.354   -2368.0932    3261.5885    -590.0975    795.07637    106.22817     17.77827    20.940452    21.689447           90           90           90 
 1986500    279.73738   -126.71491   -95.509788   -126.71491            0    2252.4308    17.787397    20.951204    21.700583            0            0            0    8087.0995    288.67877    3251.2546    3217.3591   -229.05758    1822.2405     353.6866    17.787397    20.951204    21.700583           90           90           90 
 1987000    271.51154    -127.0169   -96.729379    -127.0169            0    3966.1932    17.750845     20.90815    21.655989            0            0            0    8037.3462    4861.2423    4217.8926    2819.4447   -872.33636    132.33123    1682.7818    17.750845     20.90815    21.655989           90           90           90 
 1987500    261.42223   -127.56692   -98.404875   -127.56692            0    785.30976    17.758255    20.916877    21.665029            0            0            0    8047.4149    -158.1584    2065.6004    448.48729     -226.218   -855.21554   -708.09251    17.758255    20.916877    21.665029           90           90           90 
 1988000    271.08833   -123.47415   -93.233835   -123.47415            0   -4169.4337    17.792256    20.956927     21.70651            0            0            0    8093.7284   -3886.5034   -1907.1091   -6714.6886   -2700.1234    688.80701    3131.0934    17.792256    20.956927     21.70651           90           90           90 
 1988500    278.08665   -125.14315   -94.122162   -125.14315            0    2831.6534    17.784546    20.947845    21.697104            0            0            0    8083.2113    4326.8516    925.01928    3243.0892   -2082.9651    539.02887      2122.52    17.784546    20.947845    21.697104           90           90           90 
 1989000    272.11887   -127.96852   -97.613247   -127.96852            0    457.98515     17.76562    20.925553    21.674015            0            0            0    8057.4327   -1661.0615     2371.395    663.62197   -391.71794   -49.074233   -801.33087     17.76562    20.925553    21.674015           90           90           90 
 1989500    254.18075   -126.02807   -97.673827   -126.02807            0    905.58175    17.862218    21.039333    21.791864            0            0            0    8189.5821    1677.3834    2590.9331   -1551.5712    321.14284    1174.5516   -710.86536    17.862218    21.039333    21.791864           90           90           90 
 1990000    257.28171   -125.60217   -96.902012   -125.60217            0    1632.9858    17.894605     21.07748    21.831376            0            0            0    8234.2093    381.87906   -127.46516    4644.5435   -215.18459    1045.8745   -2081.6649    17.894605     21.07748    21.831376           90           90           90 
 1990500    261.32686   -126.73704   -97.585634   -126.73704            0    2539.6343    17.887543    21.069162     21.82276            0            0            0    8224.4646    1203.4939    3647.1158    2768.2933   -347.73789   -183.95994    38.441758    17.887543    21.069162     21.82276           90           90           90 
 1991000     247.4848   -127.74917   -100.14186   -127.74917            0    -1384.939    17.910574    21.096289    21.850858            0            0            0    8256.2734    -3949.317     454.1687   -659.66881    1786.8039   -1489.0979    1011.3608    17.910574    21.096289    21.850858           90           90           90 
 1991500    265.91466   -125.76263    -96.09945   -125.76263            0    2915.2839    17.780728    20.943348    21.692446            0            0            0    8078.0061    3718.8501    801.09953    4225.9022   -1927.7141    514.72759      2579.57    17.780728    20.943348    21.692446           90           90           90 
 1992000    250.64358   -125.46576   -97.506092   -125.46576            0    580.89155    17.903372    21.087806    21.842071            0            0            0    8246.3175   -223.73408   -882.65943    2849.0682    737.18874     411.8733   -230.54929    17.903372    21.087806    21.842071           90           90           90 
 1992500    263.40928   -126.58545   -97.201747   -126.58545            0   -57.343783    17.848984    21.023745    21.775719            0            0            0    8171.3927    681.00725   -145.60298   -707.43563   -516.17474     90.24037   -1306.3231    17.848984    21.023745    21.775719           90           90           90 
 1993000    262.67818   -126.58491   -97.282767   -126.58491            0    1922.6004    17.900008    21.083844    21.837967            0            0            0    8241.6702    1892.6328    3794.5073    80.661123   -1978.3456    533.11201    1673.3775    17.900008    21.083844    21.837967           90           90           90 
 1993500    262.19519   -126.45532   -97.207047   -126.45532            0   -1937.4503    18.007365    21.210297    21.968943            0            0            0    8390.8522   -2763.1469   -3840.7399    791.53589   -83.854604    1286.5431    927.75145    18.007365    21.210297    21.968943           90           90           90 
 1994000    262.38231   -126.64524     -97.3761   -126.64524            0    2439.2747    17.904974    21.089694    21.844026            0            0            0    8248.5319    2191.7566    3233.7909    1892.2767    -1962.675   -943.63803   -1220.6436    17.904974    21.089694    21.844026           90           90           90 
 1994500     260.2849   -127.32843   -98.293257   -127.32843            0    3680.4439    17.798795    20.964629    21.714488            0            0            0    8102.6558    2376.1264    4297.7291    4367.4762   -1118.2033   -31.768299    1599.9807    17.798795    20.964629    21.714488           90           90           90 
 1995000    273.82317     -129.025   -98.479608     -129.025            0   -558.90538    17.827611    20.998569    21.749643            0            0            0    8142.0726    192.32499   -2151.1302    282.08907    587.60912    1315.9974   -1471.0165    17.827611    20.998569    21.749643           90           90           90 
 1995500    251.04206   -127.37829   -99.374169   -127.37829            0    1378.5699    17.892097    21.074526    21.828316            0            0            0    8230.7482    2338.1104    3003.5184    -1205.919    600.00864    1426.9336    -295.1873    17.892097    21.074526    21.828316           90           90           90 
 1996000    253.72321    -125.9843   -97.681095    -125.9843            0    1574.5843    17.819128    20.988578    21.739294            0            0            0    8130.4556    2002.9628   -1946.5362    4667.3262   -1318.7743   -2503.9796    1912.1923    17.819128    20.988578    21.739294           90           90           90 
 1996500    268.11589   -126.54647   -96.637738   -126.54647            0    2401.5192    17.744784     20.90101    21.648594            0            0            0     8029.115    4442.0646    1244.1837    1518.3093   -3339.3163    160.19433   -919.05929    17.744784     20.90101    21.648594           90           90           90 
 1997000    270.67116   -127.13896   -96.945187   -127.13896            0    3105.0046    17.914264    21.100635    21.855359            0            0            0    8261.3769    5083.7977    1758.6864    2472.5297    1402.8151    366.76787   -921.76423    17.914264    21.100635    21.855359           90           90           90 
 1997500    272.86487   -126.59828   -96.159791   -126.59828            0    2668.3537    17.831745    21.003439    21.754686            0            0            0    8147.7383    3492.9641    1761.9303    2750.1668    155.35557   -807.53289    1566.0834    17.831745    21.003439    21.754686           90           90           90 
 1998000    267.69186   -128.22364   -98.362205   -128.22364            0   -505.06654    17.780427    20.942993    21.692079            0            0            0    8077.5956   -1890.3733   -1207.8218    1582.9954   -2159.0135     817.6601   -307.71286    17.780427    20.942993    21.692079           90           90           90 
 1998500    251.76733   -125.75162   -97.666596   -125.75162            0   -116.94446    17.747154    20.903802    21.651486            0            0            0    8032.3331    446.05197    980.54771   -1777.4331   -804.11973     529.4764    420.80365    17.747154    20.903802    21.651486           90           90           90 
 1999000    262.49844   -127.51342   -98.231324   -127.51342            0    455.26939    17.751319    20.908709    21.656568            0            0            0    8037.9902    894.31209    296.74816    174.74793   -1479.4994    293.47672   -442.06813    17.751319    20.908709    21.656568           90           90           90 
 1999500    258.71537   -125.88948   -97.029388   -125.88948            0    1633.5353     17.72591     20.87878    21.625569            0            0            0    8003.5232    3657.8812   -2091.1912     3333.916    1800.8779   -3280.8316   -317.48752     17.72591     20.87878    21.625569           90           90           90 
 2000000    270.58826   -126.78757   -96.603047   -126.78757            0    463.45361    17.756423     20.91472    21.662795            0            0            0    8044.9257    3175.6519   -302.55032   -1482.7408    208.21222     934.2114    2076.3477    17.756423     20.91472    21.662795           90           90           90 
Loop time of 10957.9 on 1 procs for 2000000 steps with 864 atoms

Performance: 7.885 ns/day, 3.044 hours/ns, 182.517 timesteps/s
73.5% CPU use with 1 MPI tasks x 1 OpenMP threads

MPI task timing breakdown:
Section |  min time  |  avg time  |  max time  |%varavg| %total
---------------------------------------------------------------
Pair    | 9505.8     | 9505.8     | 9505.8     |   0.0 | 86.75
Bond    | 0.33125    | 0.33125    | 0.33125    |   0.0 |  0.00
Neigh   | 1294.4     | 1294.4     | 1294.4     |   0.0 | 11.81
Comm    | 44.824     | 44.824     | 44.824     |   0.0 |  0.41
Output  | 41.391     | 41.391     | 41.391     |   0.0 |  0.38
Modify  | 62.496     | 62.496     | 62.496     |   0.0 |  0.57
Other   |            | 8.665      |            |       |  0.08

Nlocal:        864.000 ave         864 max         864 min
Histogram: 1 0 0 0 0 0 0 0 0 0
Nghost:        4168.00 ave        4168 max        4168 min
Histogram: 1 0 0 0 0 0 0 0 0 0
Neighs:         0.00000 ave           0 max           0 min
Histogram: 1 0 0 0 0 0 0 0 0 0
FullNghs:      198958.0 ave      198958 max      198958 min
Histogram: 1 0 0 0 0 0 0 0 0 0

Total # of neighbors = 198958
Ave neighs/atom = 230.27546
Ave special neighs/atom = 0.0000000
Neighbor list builds = 200000
Dangerous builds not checked

unfix		3
unfix		2

write_data	data.final.${pid}
write_data	data.final.0
System init for write_data ...

write_restart   restart.lmp.${pid}
write_restart   restart.lmp.0
System init for write_restart ...
Unloading pair style deepmd
Unloading compute style deepmd
Unloading fix style deepmd
Total wall time: 3:04:24
