LAMMPS data file via write_data, version 29 Sep 2021, timestep = 1000000

864 atoms
2 atom types

0.6424842247956359 17.565088775206704 xlo xhi
0.7567615173447866 20.689353482655285 ylo yhi
0.7838292348079694 21.42936676519401 zlo zhi

Masses

1 1.008
2 15.999

Atoms # full

466 0 1 -1.1794 3.269171528884682 4.298473728517328 3.309602561790499 0 0 0
468 0 2 0.5897 3.340645156585139 5.229743945558753 3.07605767204302 0 0 0
299 0 2 0.5897 2.6562123221643286 3.8953040445595715 1.4961354212083036 1 0 1
467 0 2 0.5897 4.169435222300763 4.1173739480088765 3.681727030651269 0 0 0
641 0 2 0.5897 1.1697574248380942 1.5436944075633403 3.8634326681648514 0 1 1
640 0 1 -1.1794 1.7518331819608914 0.8434891848954051 4.1966342306439515 0 1 1
126 0 2 0.5897 3.359692183422436 1.2612806218624235 3.1292075343456545 0 1 1
124 0 1 -1.1794 4.215833934570935 1.0886567097324464 2.7189914229297623 0 1 1
600 0 2 0.5897 5.764671437856712 2.732307607564452 2.3085584230666565 0 1 0
599 0 2 0.5897 7.121828249968639 3.2252345690993023 1.6809499957172056 0 1 0
598 0 1 -1.1794 6.235887187603473 2.818092661557925 1.4821345457589379 0 1 0
109 0 1 -1.1794 8.208766576311907 4.822111727828008 1.6366920569448502 0 0 0
111 0 2 0.5897 8.451551351426927 5.413366994050149 2.372803193500904 0 0 0
110 0 2 0.5897 7.776643075935465 5.287851080310699 0.9053016793692962 0 0 0
224 0 2 0.5897 6.30411574779953 3.340763153781963 4.899044074033939 0 0 0
854 0 2 0.5897 8.971173549234102 2.3107037472257694 3.5676657116749055 -1 1 0
213 0 2 0.5897 8.283417269706643 4.266562516785136 4.476550631434643 0 0 0
243 0 2 0.5897 6.9883596640557855 1.0732336155913238 1.339083864711132 0 0 0
242 0 2 0.5897 8.401954581395945 0.9335181336761518 1.8118556430730888 0 0 0
758 0 2 0.5897 5.309541994056452 5.546519913173972 4.674058033786701 0 0 0
211 0 1 -1.1794 7.944471460274285 3.354206661723537 4.565375068955278 0 0 0
662 0 2 0.5897 9.821079948601373 4.258662945085414 1.157029572213842 0 0 0
663 0 2 0.5897 10.972807420601663 3.809987606179649 1.9516298187557666 0 0 0
661 0 1 -1.1794 10.800841080290024 4.121219820588879 1.0772549336202326 0 0 0
855 0 2 0.5897 10.381684538731895 1.9466227060971835 3.211398539452258 -1 1 0
853 0 1 -1.1794 9.47242489767398 1.7848593415992922 2.9907924587785653 -1 1 0
196 0 1 -1.1794 11.032779350170308 4.3679818569008475 4.701029452445414 -1 0 0
787 0 1 -1.1794 12.244427466652473 2.3137771021723257 2.941014955420947 -1 1 0
789 0 2 0.5897 12.568028541109909 1.4823083644838615 3.3667003089041807 -1 1 0
788 0 2 0.5897 12.922942825232623 2.97820649459901 3.1842458905695907 -1 1 0
705 0 2 0.5897 10.708719922551674 2.044515689280482 0.7875516642185474 0 0 1
846 0 2 0.5897 12.990977769483168 1.7324334809189972 0.8465499121634339 0 0 0
492 0 2 0.5897 17.417084292145702 3.849016354792194 3.3035995854656766 -1 1 0
490 0 1 -1.1794 16.970765899717996 2.985241272151897 3.389335250129642 -1 1 0
479 0 2 0.5897 15.699792102982977 3.374012374656385 2.082568768621155 0 0 0
478 0 1 -1.1794 14.776639127961737 3.6863695218910517 1.9373727248177086 0 0 0
480 0 2 0.5897 14.725830147659167 4.38867171373742 1.2620768473517825 0 0 0
740 0 2 0.5897 15.862503463561511 0.8796309518840697 4.63313057967767 0 1 1
491 0 2 0.5897 16.369292836718905 2.8608129353285667 4.153480809203534 -1 1 0
38 0 2 0.5897 14.65360983690563 4.649313760946484 3.5278370167354227 0 1 0
39 0 2 0.5897 15.402382040447742 5.012625933515353 4.881992075099953 0 1 0
37 0 1 -1.1794 14.501024939407207 4.9227001981178224 4.4740005626457915 0 1 0
845 0 2 0.5897 14.445248075368315 2.009500514813257 1.0586941839001953 0 0 0
564 0 2 0.5897 2.4611181541215035 7.509007894962018 3.9612289157679332 0 0 0
603 0 2 0.5897 2.8892427980759035 7.837530024595323 1.419690648168053 1 0 1
562 0 1 -1.1794 1.990398452956316 6.72328926198914 4.217573376330226 0 0 0
85 0 1 -1.1794 4.04789421089359 8.547347402240735 3.93088287985355 0 0 0
149 0 2 0.5897 1.9627714035339123 10.151790933434317 2.069112833800881 0 0 0
86 0 2 0.5897 4.268649699391538 9.302355944449763 4.491794727762599 0 0 0
691 0 1 -1.1794 4.100333807124215 6.569169441667251 1.611402925204587 0 1 0
87 0 2 0.5897 4.139166833612089 8.880825764031385 3.0503312756588294 0 0 0
601 0 1 -1.1794 2.4498130253288197 8.668507235131496 1.1303878332530732 1 0 1
279 0 2 0.5897 0.7195891321900763 6.193413715907587 2.7346869398541185 0 0 0
693 0 2 0.5897 4.997708302215006 6.9184275114033476 1.617318284973579 0 1 0
759 0 2 0.5897 5.213301209744154 7.040553663425804 4.265827908951027 0 0 0
103 0 1 -1.1794 8.481254145839127 6.051047734122082 4.099113271028104 0 0 1
104 0 2 0.5897 7.516466415297485 6.1416675352611465 4.134167425619635 0 0 1
757 0 1 -1.1794 5.79779702272876 6.233223286993759 4.250453072193566 0 0 0
295 0 1 -1.1794 6.4547766238278745 8.053022690477071 1.2825585985239512 0 0 0
297 0 2 0.5897 7.017774357944979 8.213785540613342 2.0521502777575984 0 0 0
860 0 2 0.5897 8.459914323489683 8.929656623779762 4.050283130762635 0 0 1
859 0 1 -1.1794 7.573637390176132 9.021170169706949 3.702497494478638 0 0 1
861 0 2 0.5897 7.496628987478919 9.991086008750543 3.4738577752449453 0 0 1
803 0 2 0.5897 5.544207558149995 9.791910290163774 1.19936766254907 0 0 1
105 0 2 0.5897 8.88473622265209 6.901872306376505 4.389982481493655 0 0 1
456 0 2 0.5897 8.65049819826473 10.298868568150844 1.4116542472378193 0 1 1
719 0 2 0.5897 11.07744148634009 5.846894911662032 3.8323281882590585 0 0 0
718 0 1 -1.1794 11.218225339151672 6.746225115314428 3.3869609909280696 0 0 0
83 0 2 0.5897 10.82612015169754 7.12721563402699 1.595203960476127 0 0 1
720 0 2 0.5897 12.179867816763618 6.910380814406468 3.32103479928082 0 0 0
590 0 2 0.5897 12.561669738659461 10.127769270140139 1.4640607035160265 0 -1 1
84 0 2 0.5897 10.088779826448212 8.467470812784082 0.9528954171692543 1 0 1
45 0 2 0.5897 12.607070488122172 9.914209651932516 4.173600633201759 0 0 0
589 0 1 -1.1794 13.248676137973842 9.939151484440806 2.212822391615516 0 -1 1
840 0 2 0.5897 10.607351152469997 7.99306289145664 4.582911706953362 0 0 1
277 0 1 -1.1794 17.107990587927425 5.760143743423997 2.0730651264992215 -1 0 0
278 0 2 0.5897 17.464899080630538 5.96147535977027 1.2022862534386844 -1 0 0
591 0 2 0.5897 13.450828144765929 8.999552798299002 2.2488452716345435 0 -1 1
464 0 2 0.5897 16.83491260615515 7.427040594579919 4.682375652272494 0 0 1
389 0 2 0.5897 14.508155019695907 7.196036816231153 3.263843277930097 -1 0 0
388 0 1 -1.1794 13.89000495514175 7.399404030351587 2.5593350211682564 -1 0 0
390 0 2 0.5897 14.157714609933329 6.860109049842489 1.8194007375785008 -1 0 0
463 0 1 -1.1794 15.942840938392115 7.785094873373111 4.467144458517216 0 0 1
356 0 2 0.5897 16.25537188074044 7.7880140776384446 1.7878170914503815 -1 0 0
465 0 2 0.5897 16.085768873011787 8.717239348824592 4.301091178549582 0 0 1
357 0 2 0.5897 17.428158508883108 8.77919570409009 1.4259363786263535 -1 0 0
355 0 1 -1.1794 16.451987986288685 8.643034033090522 1.3180058558492311 -1 0 0
767 0 2 0.5897 16.241670046369382 10.67710928558567 2.3967807022799783 -1 0 0
768 0 2 0.5897 14.886051498172053 10.488073156480715 2.7308554708977426 0 0 0
148 0 1 -1.1794 1.7216124762330096 11.001829754881562 2.4160838932433806 0 0 0
150 0 2 0.5897 2.1411180376956453 10.989485161699664 3.306551762618163 0 0 0
79 0 1 -1.1794 2.4234579431733128 11.97797608479663 4.766199388573199 0 0 0
694 0 1 -1.1794 2.1215600757258253 15.198714506803865 2.3555342310332 0 0 0
576 0 2 0.5897 1.7019805588901178 15.044199919655707 4.2100554746864365 1 0 0
263 0 2 0.5897 3.4534724937515944 13.648821431900766 2.294889909487315 0 -1 0
695 0 2 0.5897 1.19486438583405 15.101401702561722 1.9384961882331568 0 0 0
264 0 2 0.5897 4.281972011691346 13.202250012125024 3.520130533234917 0 0 0
262 0 1 -1.1794 4.173944416700461 13.087874132391068 2.5783819607875085 0 0 0
804 0 2 0.5897 4.680314217543827 11.08016327790755 1.0211098453695675 0 0 1
6 0 2 0.5897 2.6748552870436235 11.336625473769173 0.8013621558325997 0 0 0
56 0 2 0.5897 4.45665375646224 15.500515177885084 4.637186701581445 0 0 0
433 0 1 -1.1794 7.758227312876598 11.477141033446236 2.487514032132923 1 0 1
435 0 2 0.5897 6.783376921936716 11.622322977670636 2.3465843622419085 1 0 1
802 0 1 -1.1794 5.59075148920822 10.756359438418803 1.176436497309398 0 0 1
434 0 2 0.5897 8.183467432133089 12.308017165855848 2.87967260643679 1 0 1
516 0 2 0.5897 9.015362457340295 13.909825220965045 2.7130855377809686 0 0 0
11 0 2 0.5897 5.716752795399066 14.434770139774958 2.6021199681520306 0 0 1
515 0 2 0.5897 8.391057555560636 14.079160835429944 4.1779147412189666 0 0 0
12 0 2 0.5897 6.737705188878218 15.062116266507113 1.6547090853279798 0 0 1
514 0 1 -1.1794 8.954397047559423 13.519629039713013 3.5694494457650148 0 0 0
10 0 1 -1.1794 6.377386080799631 15.13480983191859 2.565396111330006 0 0 1
418 0 1 -1.1794 8.725061763206876 13.947656981246123 0.9076776913136285 0 0 0
320 0 2 0.5897 12.436735262998777 12.31220588704561 4.3074976117841395 0 0 1
319 0 1 -1.1794 11.56043714708875 11.904003752548109 4.1604286102844155 0 0 1
321 0 2 0.5897 11.098206997582688 12.351526621907135 3.4724233498953274 0 0 1
837 0 2 0.5897 12.83689051977501 14.806184017141003 4.186808032125667 0 0 0
130 0 1 -1.1794 11.128797317924652 12.70320329957024 1.36738234199724 1 0 1
452 0 2 0.5897 10.38197486179268 14.536241608290911 4.631006893044327 -1 0 0
132 0 2 0.5897 10.241259721884267 12.979385817916162 1.075362180110135 1 0 0
451 0 1 -1.1794 10.731287061203135 15.427085804559802 4.531700116635515 -1 0 0
131 0 2 0.5897 11.448886490192985 11.995417471886288 0.8087556198880796 1 0 1
771 0 2 0.5897 11.740039445973455 14.483480808992192 1.1419434071739851 0 0 0
769 0 1 -1.1794 11.644583085705664 15.445487733572762 1.0863824123552486 0 0 0
575 0 2 0.5897 17.4224198836434 14.220678532544758 4.495797531120222 0 0 1
835 0 1 -1.1794 13.477817470268903 14.219601044062918 4.638217047310757 0 0 0
387 0 2 0.5897 13.526864205266632 12.607547614760845 1.689622698579131 0 0 1
582 0 2 0.5897 14.387653348748916 14.91058344859191 1.7531384343999075 0 0 0
766 0 1 -1.1794 15.690456082939958 10.859749847068125 3.1218321989537174 0 0 0
21 0 2 0.5897 15.961387023297076 12.615733055834637 3.939636334045027 0 0 1
19 0 1 -1.1794 16.067738742913242 13.566105633545071 3.934392664564854 0 0 1
20 0 2 0.5897 15.193638748460886 13.903749105177912 4.14242571644289 0 0 1
386 0 2 0.5897 15.072896054723707 12.680261240304407 1.4201735008967942 0 0 1
385 0 1 -1.1794 14.211696767527503 13.133013344325864 1.2885946632359606 0 0 1
444 0 2 0.5897 17.52922303132327 12.53863197540889 1.3338889629173423 0 0 1
696 0 2 0.5897 2.461941537748202 15.708424688429627 1.6435587064802317 0 0 0
125 0 2 0.5897 4.0803720139183755 20.50338558323876 1.9308961655486836 0 0 1
237 0 2 0.5897 3.2392251026528656 17.33357111549155 3.8709135359368894 0 0 0
168 0 2 0.5897 2.2287602834466735 18.732992689772367 2.195166043219114 1 0 1
166 0 1 -1.1794 1.9048898480651677 18.375572590075798 3.0461288307259724 1 0 1
167 0 2 0.5897 1.1006351449763552 17.959858440155593 2.8612679899086038 1 0 1
642 0 2 0.5897 1.6830868017357365 20.001428112122113 3.6459823224557906 0 0 1
235 0 1 -1.1794 4.141484369228385 17.091570518308487 4.1153746006203376 0 0 0
236 0 2 0.5897 4.326371634709455 17.70654555505672 4.8275191623996685 0 0 0
551 0 2 0.5897 4.752729775843405 17.891293672535504 2.433926335096756 0 0 0
550 0 1 -1.1794 4.610083730911315 18.123802633092787 1.518910260925163 0 0 0
241 0 1 -1.1794 7.770928327208884 20.450865227964627 1.2212441292285359 0 -1 0
560 0 2 0.5897 7.50036756298227 18.441650335872623 0.9516094717475697 0 0 0
482 0 2 0.5897 6.37446718666087 16.792491405472582 3.0938367174650225 0 0 0
724 0 1 -1.1794 6.511798723861288 20.122801963143964 4.1754016857710194 1 0 1
481 0 1 -1.1794 6.919584771464408 17.61076882136753 2.9905847938712795 0 0 0
483 0 2 0.5897 6.729824239743544 18.325029554728474 3.673099157522264 0 0 0
725 0 2 0.5897 5.590576120382272 20.364713451673843 3.96151457423758 1 0 1
552 0 2 0.5897 5.50990740527862 18.36209332885732 1.2886826352207306 0 0 0
318 0 2 0.5897 8.569328139183256 16.992134456094128 2.549080185021662 -1 0 0
704 0 2 0.5897 10.981166995244674 20.437594400812188 0.7897179314241958 0 -1 1
863 0 2 0.5897 12.214642225197862 17.12193504777907 4.6545606705640274 0 0 0
770 0 2 0.5897 11.211787309918506 15.773111283586282 1.8822739092113476 0 0 0
317 0 2 0.5897 9.67692576913853 16.357046603908174 3.2698446758875166 -1 0 0
316 0 1 -1.1794 9.519755802991982 16.901359207716276 2.47539753365041 -1 0 0
847 0 1 -1.1794 10.006172149318903 19.216041265354924 4.531776218011089 0 0 0
848 0 2 0.5897 10.055136442954138 18.378503518982576 4.01443659736368 0 -1 0
849 0 2 0.5897 9.652256562543121 19.8628159517553 3.8481737022048743 0 0 0
608 0 2 0.5897 12.779298794976587 19.451403266048125 2.583990526335781 0 0 1
738 0 2 0.5897 10.622595461026005 17.99933370011675 1.4762021767727251 0 0 0
736 0 1 -1.1794 11.24772681410566 18.73431016111035 1.2223768431130348 0 0 0
607 0 1 -1.1794 13.161609241318283 19.79532304315199 3.365354049552493 0 0 1
864 0 2 0.5897 12.998532865915772 17.99359131343202 3.729656959574243 0 0 0
862 0 1 -1.1794 12.799740451970582 17.05391450214845 3.8755044345321017 0 0 0
580 0 1 -1.1794 14.510292426030148 15.81094091190058 1.8165249756330644 0 0 0
458 0 2 0.5897 15.71436655481207 16.26277430051975 2.8138958571822363 -1 0 0
581 0 2 0.5897 13.687367800444806 16.249760879736762 2.2046459596224475 0 0 0
621 0 2 0.5897 16.079390656720147 20.073307227872704 2.5479572769443704 -1 0 1
619 0 1 -1.1794 15.742911446919374 19.633396906500828 3.3161203274854487 -1 0 1
609 0 2 0.5897 14.119548620012853 19.95689134488687 3.193102566321306 0 0 1
620 0 2 0.5897 15.955502577268913 18.70491307750993 3.209633671161951 -1 0 1
457 0 1 -1.1794 16.362812210246133 16.857732449738073 3.2022304605273395 -1 0 0
459 0 2 0.5897 16.331265009498214 16.754180365824144 4.1587607926813295 -1 0 0
62 0 2 0.5897 2.759287108156407 4.298446324921568 5.056962947173822 0 0 1
786 0 2 0.5897 3.1132713563612144 1.4457125400992128 5.32157599410533 0 1 1
784 0 1 -1.1794 3.976885128099113 1.5158646736366106 5.811134757148901 0 1 1
785 0 2 0.5897 3.68535012564709 1.8523588317208368 6.657572400908116 0 1 1
100 0 1 -1.1794 3.7992134628492553 2.5530804709419264 8.476378505805865 0 0 0
210 0 2 0.5897 1.5471236036617375 2.9423513080012587 6.681665686224476 0 1 0
438 0 2 0.5897 2.3183434429731586 4.271549713219092 9.006844972215836 0 0 0
61 0 1 -1.1794 2.6388522454526724 4.327836346622236 6.01572915538223 0 0 1
63 0 2 0.5897 3.4609926410184686 4.663704473964167 6.370704823510633 0 0 1
417 0 2 0.5897 0.8932001683438877 4.914731449779552 5.830342994102444 1 0 1
436 0 1 -1.1794 1.8662761599637874 5.085879606015519 8.758432571849387 0 0 0
102 0 2 0.5897 4.6897248367974695 2.9511652386425595 8.478583731738116 0 0 0
225 0 2 0.5897 4.770285669204771 2.9174295361717233 5.285350926002174 0 0 0
208 0 1 -1.1794 0.8674801189811243 2.26005774515058 6.809344178747798 0 1 0
209 0 2 0.5897 0.6819364695508973 2.0894346194875704 7.735804535938909 0 1 0
437 0 2 0.5897 2.20580002791763 5.303288565736657 7.871482225441171 0 0 0
223 0 1 -1.1794 5.354651166859155 3.6030082579799703 4.926633859996875 0 0 0
217 0 1 -1.1794 6.5518347475769145 3.4796079402556 8.174258749124299 0 0 0
218 0 2 0.5897 6.467733630480113 4.295151605334081 7.661647206275208 0 0 0
212 0 2 0.5897 8.520402031555559 2.9750255553746854 5.235335489810215 0 0 0
219 0 2 0.5897 7.2840752261729484 3.5160958607650494 8.784057670152457 0 0 0
774 0 2 0.5897 6.930560956884926 1.8349835228249076 7.442845606518499 0 1 0
612 0 2 0.5897 8.947524816756038 1.4603621440456105 6.694640640538829 0 1 0
772 0 1 -1.1794 7.306338002814182 0.9731369680154773 7.145158601327209 0 1 0
77 0 2 0.5897 5.362797483148078 5.701910950547543 7.179326420324001 0 0 0
197 0 2 0.5897 11.860987578464607 4.048964173346635 5.139679469392139 0 0 0
198 0 2 0.5897 10.469563216132904 4.659839059090327 5.4584892110101695 -1 0 0
401 0 2 0.5897 9.917047052220655 3.918950597788036 7.339455951286371 0 0 0
610 0 1 -1.1794 9.560710883751707 2.0899524619699488 6.4133483680188235 0 1 0
400 0 1 -1.1794 10.084515010775167 4.84541030859781 7.092489636845523 0 0 0
611 0 2 0.5897 10.41890419414172 1.6498766905296534 6.198878450202924 0 1 0
402 0 2 0.5897 10.587488369150531 5.124070573979175 7.807708686978308 0 0 0
238 0 1 -1.1794 12.764511590967757 5.108253356703937 8.646112296241547 0 0 0
239 0 2 0.5897 13.019302648265297 4.496500835856894 7.919325964825495 0 0 0
578 0 2 0.5897 12.712521867212205 2.393666530237555 5.985685193276101 0 0 0
577 0 1 -1.1794 13.210820618709713 3.1849008831381758 6.283981226475204 0 0 0
579 0 2 0.5897 13.844338556901697 3.5258842259930447 5.594809815038259 0 0 0
741 0 2 0.5897 16.32986589332676 1.7309523277994163 5.804040348034204 0 1 1
486 0 2 0.5897 14.36131736650777 2.423199903231086 7.733490361043985 0 0 0
415 0 1 -1.1794 16.85811276732963 5.116027493321511 5.816872248857379 0 0 1
416 0 2 0.5897 16.59334110295071 5.129486548023853 6.7587740141557235 0 0 1
739 0 1 -1.1794 15.547247026446108 1.545796825939496 5.27910592452082 0 1 1
827 0 2 0.5897 15.679713263500295 4.0048124916322285 8.56671469955596 -1 0 1
828 0 2 0.5897 17.092383965499216 4.7106626944183905 8.70316817137218 -1 0 1
826 0 1 -1.1794 16.123836939495277 4.892260034979991 8.512671602798193 -1 0 1
484 0 1 -1.1794 14.836203952564333 2.388294719078989 8.527408275342584 0 0 0
563 0 2 0.5897 2.070032584291111 6.661544224279058 5.191214177913263 1 0 0
76 0 1 -1.1794 4.427857266609889 6.024611356253199 7.399056286816654 0 0 0
289 0 1 -1.1794 1.4672121153574924 7.7679082229034035 6.624650521270698 1 0 0
290 0 2 0.5897 1.102817681665749 8.649695099726685 6.354595305434114 1 0 0
441 0 2 0.5897 3.0869719924544636 8.397853752994376 7.355359003413726 1 0 1
440 0 2 0.5897 4.096790221623946 8.741871798697222 8.531331868315473 1 0 1
439 0 1 -1.1794 4.024564396101168 8.550254840985225 7.557894539660748 1 0 1
78 0 2 0.5897 4.377095315468022 7.006563924260059 7.401816554742236 0 0 0
505 0 1 -1.1794 4.4854383977206655 10.503473111146128 5.7376897344102336 1 0 1
291 0 2 0.5897 0.7213822894440488 7.318098544927147 7.0717439641049635 1 1 0
506 0 2 0.5897 4.08114022459947 10.343231560453964 6.626435954821645 1 0 1
180 0 2 0.5897 1.021670798452768 10.531369238960643 7.003281991329991 0 1 1
178 0 1 -1.1794 0.676627472762128 10.371115982990624 6.143290208761688 0 1 1
31 0 1 -1.1794 7.422091007055572 5.949521748269862 7.069390432522532 0 1 0
32 0 2 0.5897 8.261406144113282 5.785367291141763 6.582104616150588 0 1 0
652 0 1 -1.1794 6.719177610398451 8.67044398740003 6.1556983775208485 0 0 0
33 0 2 0.5897 7.1379395891257 6.783716956714222 6.742496112384064 0 1 -1
653 0 2 0.5897 6.763988704030697 8.996649892543413 5.2471267007758655 0 0 0
654 0 2 0.5897 5.923434235050051 9.043528825676015 6.5890901124778996 0 0 0
756 0 2 0.5897 8.395600647864507 9.26711539219208 7.179192895693078 0 1 0
754 0 1 -1.1794 8.96328419519832 9.11737138676483 7.926979623691232 0 0 0
522 0 2 0.5897 7.376764254420303 6.68260481215002 8.956818828494097 -1 0 0
521 0 2 0.5897 7.518358299178402 8.162264503232588 8.848942827931086 -1 0 0
838 0 1 -1.1794 9.822029632275987 8.27786716348357 5.027426992498956 0 0 1
839 0 2 0.5897 9.95228049236137 9.183228106579326 5.3621645464288665 0 0 1
755 0 2 0.5897 9.378886204252055 9.984463825560699 8.106653850673672 0 1 0
43 0 1 -1.1794 12.961885973998186 9.641691806181765 5.033809844994504 -1 0 0
365 0 2 0.5897 10.841857079865752 8.094809675887415 6.714253768501102 0 0 0
364 0 1 -1.1794 11.439223303250603 7.81017920811168 7.458435911770742 0 0 0
366 0 2 0.5897 12.040032112778459 8.473739380221447 7.716245091601258 0 0 0
782 0 2 0.5897 12.663981887178137 6.912921431841928 6.289077065483743 0 0 0
371 0 2 0.5897 12.188745413248013 10.54042719350758 6.304282385347541 -1 -1 0
701 0 2 0.5897 10.523277876645201 7.021060960020228 8.81381741579563 0 1 0
44 0 2 0.5897 13.091154611791499 8.66577551346431 5.0616075988280835 -1 0 0
783 0 2 0.5897 13.6488542480617 6.305540624501618 5.195719253773276 0 0 0
781 0 1 -1.1794 13.475119277593512 7.026298108057955 5.773704949285895 0 0 0
850 0 1 -1.1794 15.634079301891902 7.7948819658187505 7.674491021926605 0 0 0
851 0 2 0.5897 15.587766292797607 6.936437680879452 8.126859484076334 0 0 0
614 0 2 0.5897 15.217750516779546 9.387826463973738 8.498615335356991 0 0 0
852 0 2 0.5897 14.89162739107678 7.884394290300874 7.01590990217327 0 0 0
613 0 1 -1.1794 14.614829627631392 10.132359998619187 8.61148880866023 0 0 0
240 0 2 0.5897 13.338342172680377 5.825662683045645 8.467799010334486 0 0 0
507 0 2 0.5897 3.954753247656091 11.250572696377537 5.401979034050699 1 0 1
80 0 2 0.5897 2.167541878434897 12.915356418135147 5.004438357925073 0 0 0
574 0 1 -1.1794 1.3059365578298732 14.648313351868312 4.960472090126543 1 0 0
55 0 1 -1.1794 4.498917267820158 14.630387508256053 5.098103137879765 0 0 0
712 0 1 -1.1794 0.899092694543288 11.139489461149319 8.717310424133851 1 0 0
285 0 2 0.5897 2.7843823914594696 11.259864440303037 8.819707669305464 1 0 1
283 0 1 -1.1794 3.6964946914698427 11.352323279325814 8.478743141583745 1 0 1
284 0 2 0.5897 3.75616693505852 12.199713445345896 8.040764126618287 1 0 1
81 0 2 0.5897 1.8224317052314645 11.388767914190002 5.286108130915707 0 0 0
554 0 2 0.5897 2.5598264235065957 14.151110556970592 7.869955032590311 0 0 1
553 0 1 -1.1794 3.4938335992671603 14.047781833523318 7.433064118510316 0 0 0
412 0 1 -1.1794 1.05904465757867 13.803512364033786 8.537030567662867 0 0 0
57 0 2 0.5897 3.9637977805284184 14.60912588117864 5.989261110107942 0 0 0
555 0 2 0.5897 4.011449044361551 14.67928821059155 7.913213627381677 0 0 0
714 0 2 0.5897 0.8987990874160934 12.120597520369355 8.759432354851839 1 0 0
428 0 2 0.5897 6.13712751900867 11.360341649654334 5.988438574372508 1 0 0
427 0 1 -1.1794 6.931202234113443 11.890945204061014 6.261462383983777 1 0 0
429 0 2 0.5897 6.828719683588901 11.789662605645658 7.20272572434273 1 0 0
92 0 2 0.5897 6.671510245147922 14.19741062142343 5.746514963025408 0 0 0
91 0 1 -1.1794 7.457113034852845 14.735679256350615 5.658176105954241 0 0 0
215 0 2 0.5897 8.774910330894478 14.239972131764851 6.8246102836163 0 0 0
545 0 2 0.5897 8.532941402878542 11.46334863296239 5.776513692256292 0 0 1
806 0 2 0.5897 5.79024632795586 15.142855079034199 8.745114228174103 0 0 0
329 0 2 0.5897 9.090127683086399 12.33980100283154 8.365844666309762 0 0 0
93 0 2 0.5897 7.3085191183328915 15.67090520750303 5.4089572283769805 0 0 0
546 0 2 0.5897 9.867947735116239 11.392919641250009 4.942268779454669 0 0 0
544 0 1 -1.1794 9.305515671749477 10.877223071773923 5.556760856225314 0 0 0
372 0 2 0.5897 10.836002472838302 10.967267005585803 6.834364865901667 -1 -1 0
370 0 1 -1.1794 11.818681889963385 10.998995509689994 7.080595466475857 -1 -1 0
836 0 2 0.5897 13.16278886711497 14.09472105643885 5.586969661907174 0 0 0
214 0 1 -1.1794 9.39087070141164 14.221085520932183 7.566370125085389 0 0 0
727 0 1 -1.1794 12.025872019629348 13.680890424863124 6.990326370867346 -1 0 0
728 0 2 0.5897 11.945046186061127 12.640090132479099 6.8720732782727 -1 0 0
729 0 2 0.5897 11.166399468388276 13.952558092889353 7.304796408265303 -1 0 0
216 0 2 0.5897 9.144208812115846 14.877186735438606 8.177445962586036 0 0 0
776 0 2 0.5897 13.027830008063434 15.079272044658444 7.75435668005111 0 0 0
328 0 1 -1.1794 9.460758995689435 11.63884277982819 8.92606116430099 0 0 0
413 0 2 0.5897 17.235637165879197 14.087535363706934 7.97265369572941 -1 0 0
179 0 2 0.5897 16.678979833012292 10.738724916432755 6.148781539638798 -1 1 1
800 0 2 0.5897 14.61816678926873 10.846665317900467 5.497684490352053 0 0 0
801 0 2 0.5897 14.775900194087104 11.04819858789839 7.04120489740179 0 0 0
799 0 1 -1.1794 15.014375999184464 11.414758485462805 6.164298412749638 0 0 0
107 0 2 0.5897 15.99505344057405 13.700567599275177 6.260666901006704 -1 0 0
106 0 1 -1.1794 15.712867837018388 14.209498448102913 7.047374022218854 -1 0 0
108 0 2 0.5897 15.54679720017314 15.08940690186535 6.75228034369572 -1 0 1
201 0 2 0.5897 14.744699132941365 13.179966654651057 8.279361466827826 0 0 1
615 0 2 0.5897 15.045486707071793 10.945372733178457 8.860267790902823 0 0 0
117 0 2 0.5897 1.0537893725685255 15.744684944925082 6.532377346049338 1 0 0
115 0 1 -1.1794 1.1217727176538408 16.368034670754984 7.242110011813748 1 0 0
310 0 1 -1.1794 4.656666159889845 18.729054424582877 6.246839750496291 0 -1 0
312 0 2 0.5897 4.416131963493996 19.660358310949512 6.230995753587936 0 -1 0
311 0 2 0.5897 4.154316697352552 18.26427393618208 6.957844515590282 0 -1 0
47 0 2 0.5897 2.7060891704591032 16.50919592716553 7.978465259329961 1 0 0
116 0 2 0.5897 1.0416385348076436 17.2623381021383 6.844787911317143 1 0 0
1 0 1 -1.1794 2.791023648955767 19.725269908187244 8.455591733418132 0 0 0
3 0 2 0.5897 2.345765931047024 20.39106942738286 8.973292670701182 0 0 0
155 0 2 0.5897 1.0929303262093564 19.775667019949907 5.956401168777159 1 -1 0
154 0 1 -1.1794 0.9908116381993841 19.123895808391424 6.679776670866511 1 -1 0
156 0 2 0.5897 1.5633563629349352 19.430158281561965 7.396500900637883 1 -1 0
48 0 2 0.5897 4.134429302216806 16.659936269870556 8.599283220699249 1 0 0
46 0 1 -1.1794 3.190582319211171 16.93439135938319 8.710235717334555 1 0 0
2 0 2 0.5897 2.757286027628493 18.905094585293142 8.941029341815584 0 0 0
734 0 2 0.5897 4.80086940071274 20.124256112649192 8.818558172114495 0 -1 0
726 0 2 0.5897 6.689946929619447 20.298181186064546 5.076248099877552 1 0 1
773 0 2 0.5897 6.912002143361223 20.22122049849645 7.727052783835037 0 0 0
807 0 2 0.5897 6.198773560701016 16.15333181255805 7.563216194380201 0 0 0
474 0 2 0.5897 7.71606199333634 17.642488848328505 6.589660549208077 0 0 0
472 0 1 -1.1794 6.831598370575901 17.254537619338635 6.459155231541352 0 0 0
473 0 2 0.5897 6.198427730673933 17.930347969353548 6.30352342289596 0 0 0
805 0 1 -1.1794 5.492800083521384 15.853034924344168 8.166931663463464 0 0 0
858 0 2 0.5897 8.827019732576238 17.12747192155595 8.513420466144675 0 -1 0
453 0 2 0.5897 10.79738332493682 15.762557092455838 5.421723452430753 -1 0 0
151 0 1 -1.1794 11.924142976613878 20.670295456385645 5.839100214481514 0 -1 0
152 0 2 0.5897 12.164591887387605 20.305662313817038 6.730562588302746 0 -1 0
336 0 2 0.5897 9.246381416454003 19.527991996255658 7.6203694812167235 -1 0 0
334 0 1 -1.1794 9.390040424704782 18.715517599399924 7.102491004329619 -1 0 0
335 0 2 0.5897 9.465792112458368 18.991399473359408 6.200507834569156 -1 0 0
796 0 1 -1.1794 11.630144776986965 20.51084434195394 8.56793189166074 -1 0 0
153 0 2 0.5897 11.694211409753532 19.941315165907547 5.262995729961938 0 0 0
531 0 2 0.5897 12.287939619014155 16.988171848200047 6.976993994299245 -1 -1 0
530 0 2 0.5897 11.100731883749221 17.88780829145609 7.152891512074526 -1 -1 0
529 0 1 -1.1794 11.45708976183759 17.235454868141552 6.538435226701549 -1 -1 0
775 0 1 -1.1794 13.217428681379102 15.863006386593936 8.324805454469871 0 0 0
797 0 2 0.5897 12.38097345872781 20.037400461888694 8.952866011714107 -1 0 0
716 0 2 0.5897 16.500988321717763 16.334066275194434 8.74640956040317 0 -1 0
190 0 1 -1.1794 15.177111037152073 16.53562908439195 5.648160939567431 0 -1 0
138 0 2 0.5897 14.70995612627479 19.94841412435126 6.486938067296447 -1 0 0
192 0 2 0.5897 14.367578981755942 16.67595526754305 5.0781161649342 0 0 0
191 0 2 0.5897 15.26921119499173 17.375583798340728 6.155355701767328 0 0 0
777 0 2 0.5897 14.100247556647949 15.79202427661663 8.705208807482911 0 0 0
136 0 1 -1.1794 15.043109521479513 19.137223770134497 6.888665208312047 -1 0 0
137 0 2 0.5897 16.003422318921178 19.27378204045352 6.9465309566774005 -1 0 0
617 0 2 0.5897 14.15308359703954 19.04813990768895 8.482893412178399 -1 0 0
244 0 1 -1.1794 0.6919745253798778 1.5537212206218294 9.453117718853186 1 0 1
101 0 2 0.5897 3.6695453055552343 2.168008090247789 9.362964541785649 0 0 0
303 0 2 0.5897 2.6157923016105107 2.910048777737956 11.441119962614378 0 0 1
301 0 1 -1.1794 1.7756716708015121 3.4235866670671924 11.286686468754205 0 0 0
752 0 2 0.5897 4.591760194949684 4.391266549894664 12.790279575943305 0 1 0
573 0 2 0.5897 4.194116019533297 1.5960826327518327 11.701509379592748 0 1 0
571 0 1 -1.1794 3.6402593075734786 1.4224943494254718 10.929500902723607 0 1 0
302 0 2 0.5897 1.9149595629110552 4.249226381516156 11.766450213408579 0 0 0
753 0 2 0.5897 3.9310685089719986 5.697965448090623 12.837145314476876 1 1 0
246 0 2 0.5897 0.9687346190600209 2.1959371097929896 10.15421669969794 0 0 1
164 0 2 0.5897 8.850695340299769 5.251094379577425 10.055636874334208 -1 0 0
604 0 1 -1.1794 5.954749068217437 4.150559316214409 11.911788084669864 0 0 1
42 0 2 0.5897 6.474885385843552 2.288338467196623 11.378084293271089 0 1 0
40 0 1 -1.1794 7.022679000195911 1.5556932200554718 11.083065282478744 1 1 0
606 0 2 0.5897 6.833696167460526 4.406418639646841 12.156338042832365 0 0 1
680 0 2 0.5897 8.67186647373929 3.7492937037842915 11.914824808844491 0 1 0
679 0 1 -1.1794 8.674100064077317 4.111053267428031 12.791536587565314 0 0 0
163 0 1 -1.1794 8.49875687711092 4.293836135007339 10.026937880054724 -1 0 0
605 0 2 0.5897 5.693852122297546 4.751403699896176 11.180504040971186 0 0 1
41 0 2 0.5897 6.462294043704645 1.03393807284302 10.54465885365787 1 1 0
221 0 2 0.5897 8.940975153981864 0.9880306931757642 9.796024024651471 -1 0 0
540 0 2 0.5897 11.280229416621543 2.219696258364931 9.24945937795004 -1 0 0
539 0 2 0.5897 11.509199912245721 3.6905764417640854 9.815164049003963 -1 0 0
681 0 2 0.5897 9.344493781652245 4.798454512673476 12.828836311917508 0 0 0
538 0 1 -1.1794 10.834161855783083 2.936696480950249 9.755578225694936 -1 0 0
165 0 2 0.5897 9.31938852323061 3.897496746118616 9.699974518293333 -1 0 0
173 0 2 0.5897 9.419376820934678 1.5714831267940605 12.632933509175578 0 0 0
174 0 2 0.5897 10.259456702809384 2.3302770446421386 11.531166978658321 0 0 0
172 0 1 -1.1794 10.34003001440049 1.8494867330695974 12.386153747991637 0 0 0
313 0 1 -1.1794 12.09218975757457 4.852014644964278 11.328421494215327 0 1 0