LAMMPS (29 Sep 2021 - Update 2)
  using 1 OpenMP thread(s) per MPI task
echo both

include		in.partitions
variable        pid world 0
include		in.temp
variable        temperature equal 265
variable        tempDamp equal 0.100 # this is 0.1 ps
include		in.pressure
variable        pressure equal 9119.25
variable        pressureDamp equal 1.0 #this is 1ps
include		in.seed
variable        seed world 745823

units           metal
atom_style	full
include		in.box
read_data       water.data
Reading data file ...
  orthogonal box = (0.0000000 0.0000000 0.0000000) to (18.207573 21.446115 22.213196)
  1 by 1 by 1 MPI processor grid
  reading atoms ...
  864 atoms
  reading velocities ...
  864 velocities
Finding 1-2 1-3 1-4 neighbors ...
  special bond factors lj:    0        0        0       
  special bond factors coul:  0        0        0       
     0 = max # of 1-2 neighbors
     0 = max # of 1-3 neighbors
     0 = max # of 1-4 neighbors
     1 = max # of special neighbors
  special bonds CPU = 0.003 seconds
  read_data CPU = 0.023 seconds
include 	in.setup
variable	out_freq equal 500
variable	out_freq2 equal 500

timestep        0.0005

neigh_modify    delay 7 every 1

include         in.deepmd
# This is deepMD model

# create groups ###
#group ox type 2
#group hy type 1

mass 2 15.999
mass 1 1.008

pair_style      deepmd ../graph.pb
pair_coeff      * *

bond_style      none
angle_style     none
dihedral_style  none
improper_style  none
neigh_modify exclude none


neighbor        2.0 bin
neigh_modify    every 10 delay 0 check no

thermo          ${out_freq}
thermo          500
thermo_style 	custom step temp pe etotal epair emol press lx ly lz vol pxx pyy pzz pxy pxz pyz

restart 	${out_freq} restart.lmp.${pid} restart2.lmp.${pid}
restart 	500 restart.lmp.${pid} restart2.lmp.${pid}
restart 	500 restart.lmp.0 restart2.lmp.${pid}
restart 	500 restart.lmp.0 restart2.lmp.0


include         in.dump
dump            myDump all atom ${out_freq2} dump.water.${pid}
dump            myDump all atom 500 dump.water.${pid}
dump            myDump all atom 500 dump.water.0
dump            myDump2 all dcd ${out_freq2} dump.dcd
dump            myDump2 all dcd 500 dump.dcd
dump_modify     myDump append yes
dump_modify     myDump2 append yes


timer           timeout 05:55:00 every 1000
New timer settings: style=normal  mode=nosync  timeout=05:55:00

fix             2 all nph iso ${pressure} ${pressure} ${pressureDamp}
fix             2 all nph iso 9119.25 ${pressure} ${pressureDamp}
fix             2 all nph iso 9119.25 9119.25 ${pressureDamp}
fix             2 all nph iso 9119.25 9119.25 1
fix             3 all temp/csvr ${temperature} ${temperature} ${tempDamp} ${seed}
fix             3 all temp/csvr 265 ${temperature} ${tempDamp} ${seed}
fix             3 all temp/csvr 265 265 ${tempDamp} ${seed}
fix             3 all temp/csvr 265 265 0.1 ${seed}
fix             3 all temp/csvr 265 265 0.1 745823
velocity 	all create ${temperature} ${seed} dist gaussian
velocity 	all create 265 ${seed} dist gaussian
velocity 	all create 265 745823 dist gaussian

run             1000000

CITE-CITE-CITE-CITE-CITE-CITE-CITE-CITE-CITE-CITE-CITE-CITE-CITE

Your simulation uses code contributions which should be cited:

- USER-DEEPMD package:

@article{Wang_ComputPhysCommun_2018_v228_p178,
  author = {Wang, Han and Zhang, Linfeng and Han, Jiequn and E, Weinan},
  doi = {10.1016/j.cpc.2018.03.016},
  url = {https://doi.org/10.1016/j.cpc.2018.03.016},
  year = 2018,
  month = {jul},
  publisher = {Elsevier {BV}},
  volume = 228,
  journal = {Comput. Phys. Commun.},
  title = {{DeePMD-kit: A deep learning package for many-body potential energy representation and molecular dynamics}},
  pages = {178--184}
}

CITE-CITE-CITE-CITE-CITE-CITE-CITE-CITE-CITE-CITE-CITE-CITE-CITE

Neighbor list info ...
  update every 10 steps, delay 0 steps, check no
  max neighbors/atom: 2000, page size: 100000
  master list distance cutoff = 8
  ghost atom cutoff = 8
  binsize = 4, bins = 5 6 6
  1 neighbor lists, perpetual/occasional/extra = 1 0 0
  (1) pair deepmd, perpetual
      attributes: full, newton on
      pair build: full/bin
      stencil: full/bin/3d
      bin: standard
Per MPI rank memory allocation (min/avg/max) = 7.215 | 7.215 | 7.215 Mbytes
Step Temp PotEng TotEng E_pair E_mol Press Lx Ly Lz Volume Pxx Pyy Pzz Pxy Pxz Pyz 
       0          265    -134.9383   -105.37715    -134.9383            0    24631.313    18.207573    21.446115    22.213196    8673.8466    24502.051    25408.025    23983.864     1102.964   -265.04585   -871.41783 
     500    274.36328   -127.90433   -97.298691   -127.90433            0    8264.4908    17.675669    20.819603    21.564275    7935.6621    12258.577    5617.7673    6917.1284    833.32965   -1824.3021   -1555.0381 
    1000    265.33979   -124.79931    -95.20026   -124.79931            0    10502.457    17.487862     20.59839     21.33515    7685.3859    14219.618    7367.5073    9920.2455   -1722.4701    398.98808   -1319.6364 
    1500    257.25497   -125.57039    -96.87321   -125.57039            0    10519.821    17.374568    20.464945    21.196932    7536.9839    9474.1684    10285.204    11800.089   -3273.7533   -2776.3015    -1089.683 
    2000    270.92838   -124.76479   -94.542318   -124.76479            0    6518.5281    17.298125    20.374905    21.103671    7437.9395    7844.0978    4573.6738    7137.8127    763.08457    1720.9095    4245.5406 
    2500    277.12641   -123.58166   -92.667789   -123.58166            0    12933.569    17.180941    20.236879    20.960708    7287.7996    15786.631    11056.238    11957.838    810.07338   -2156.3093   -1458.0404 
    3000    278.37123   -123.94806   -92.895333   -123.94806            0    5708.1443    17.157938    20.209783    20.932643    7258.5657    6096.9849    1268.4667    9758.9814   -1429.4125    138.94845   -2466.3819 
    3500    256.80734   -122.86311   -94.215865   -122.86311            0    9311.9715    17.209021    20.269953    20.994965    7323.5907     8356.873    10617.279    8961.7627    2956.3684    501.55838   -1057.4743 
    4000    259.27673   -123.10434    -94.18163   -123.10434            0    8321.5809    17.104515    20.146858    20.867467    7190.9757    9120.0162    6383.6601    9461.0664   -336.45219   -1244.2305   -2049.2734 
    4500    254.49006   -122.74356    -94.35481   -122.74356            0    10201.582    17.099902    20.141425     20.86184    7185.1594    9150.8401    10463.909    10989.997    241.29701    478.55332    783.34673 
    5000    267.97355    -123.5745    -93.68165    -123.5745            0    10030.596    17.114408    20.158511    20.879538    7203.4612    7712.5302    8789.9689     13589.29    795.64804   -2864.2164   -1363.4999 
    5500    253.25848   -123.35574    -95.10438   -123.35574            0    6760.3291    17.103721    20.145923    20.866499    7189.9749    3476.5794     9267.472    7536.9361    522.81714    680.34333   -1260.4024 
    6000    263.71645   -123.50409   -94.086123   -123.50409            0    12891.935    17.011932    20.037808    20.754517    7074.8375    11440.653    15239.377    11995.774    2207.9873   -255.42906   -2878.7745 
    6500    254.78942   -123.57748   -95.155339   -123.57748            0    7133.8979    17.106633    20.149353    20.870052    7193.6479    10244.491     3945.482    7211.7205    -1287.978    58.524361   -225.34284 
    7000      259.071     -121.177   -92.277239     -121.177            0    10461.731    16.970178    19.988627    20.703577    7022.8717    10334.925    10300.446    10749.822    4681.7171   -96.395962   -2479.6518 
    7500    261.33895   -121.97309   -92.820337   -121.97309            0    6499.1518    17.085236     20.12415    20.843947    7166.6876    7417.2269     7460.551    4619.6776    402.98006    1596.5538    195.17769 
    8000    272.66648   -123.15206   -92.735707   -123.15206            0    9556.1527    16.992136    20.014491    20.730366    7050.1683    9564.1542    9111.1007    9993.2032     1770.698   -4613.0002   -2840.6524 
    8500    273.64361   -124.23361   -93.708258   -124.23361            0    9050.3144    16.970061    19.988489    20.703434    7022.7264    10414.418    6174.6465    10561.878   -1910.2343   -1959.7039   -2329.5907 
    9000    276.86634   -122.63183   -91.746977   -122.63183            0    8071.7377    17.010615    20.036257     20.75291    7073.1949    5117.7664    9812.3958    9285.0509    1365.1481   -48.471818     2249.821 
    9500    260.30719   -120.59326   -91.555602   -120.59326            0    10316.928    16.993128    20.015659    20.731576    7051.4027    6403.5343    15670.019    8877.2313    701.07723   -1942.3517    764.90024 
   10000    273.32767   -121.27563   -90.785516   -121.27563            0    8398.4036    16.986765    20.008164    20.723813    7043.4844    7983.7926    8573.5469    8637.8714   -1850.1351    251.95844    1121.3777 
   10500    273.44817    -119.8449   -89.341344    -119.8449            0    12871.697    16.976175    19.995691    20.710894    7030.3204    13076.077      10413.4    15125.616   -470.33076    -298.1193    366.34582 
   11000    275.57286   -122.54564   -91.805077   -122.54564            0     7564.959    17.054316    20.087731    20.806225     7127.849     7196.043    7265.0673    8233.7667   -430.55823   -1077.8537   -1045.0011 
   11500    268.10901   -122.44607   -92.538109   -122.44607            0    9620.5999    16.986664    20.008046     20.72369    7043.3598    12187.395    5689.4079    10984.997    -355.1093    2183.9782    1059.0868 
   12000    264.47064    -121.0469   -91.544798    -121.0469            0    9898.7694    16.965542    19.983167    20.697921    7017.1179    9499.2375    9838.8449    10358.226    227.98103    4455.7322    2715.6349 
   12500    283.74515    -123.6528   -92.000604    -123.6528            0    9732.6063    17.039403    20.070165    20.788031     7109.166    7374.3497    11813.729     10009.74   -1537.7284    2934.4069     1020.545 
   13000    275.88857   -122.14091   -91.365123   -122.14091            0    10251.069    17.017675    20.044572    20.761523    7082.0047    7672.7525    10972.766    12107.687   -1017.8762    1585.4689    2569.1002 
   13500    258.91502    -124.3829   -95.500543    -124.3829            0    10162.182    17.030742    20.059963    20.777465    7098.3311    8449.4635    10528.932    11508.152    1585.5756   -40.462936    1124.6892 
   14000     267.3175   -124.58775   -94.768083   -124.58775            0    10275.126    16.974355    19.993547    20.708672    7028.0585    8544.0775    9859.7157    12421.585     383.1164      988.173    256.13626 
   14500    256.04747   -124.63104   -96.068564   -124.63104            0    12699.983    17.003666    20.028072    20.744433      7064.53    9179.2964    14025.039    14895.614   -509.35316   -2968.0314    1027.2771 
   15000      267.601   -123.40758   -93.556285   -123.40758            0    8507.5574    16.947563     19.96199    20.675987    6994.8326     7910.693    9400.5847    8211.3945    411.31553   -2828.9926   -633.40141 
   15500    267.96063   -124.35363   -94.462218   -124.35363            0    10436.126    16.994399    20.017156    20.733127    7052.9856    11875.977    8744.4829    10687.919    1758.8478   -1227.3693   -881.42759 
   16000    266.40308   -124.17608   -94.458414   -124.17608            0     6385.325    17.002716    20.026952    20.743273    7063.3451    6680.9353    6177.3301    6297.7096   -573.36705    -9.881067     177.3488 
   16500    270.15358   -124.17284   -94.036799   -124.17284            0    12247.159    16.967583    19.985571    20.700412    7019.6512    14210.537    10906.772    11624.167    467.57062    879.51594    748.56887 
   17000    275.61746   -125.98239   -95.236843   -125.98239            0    4023.0789    17.106386    20.149062    20.869751    7193.3365    5660.5063    1392.2218    5016.5085   -4218.8757   -2205.2023   -159.79974 
   17500    269.25054    -124.2812   -94.245899    -124.2812            0    9896.9638    16.918558    19.927825      20.6406    6958.9796    7669.6707    9425.7836    12595.437   -1109.8488   -1435.3087   -782.04772 
   18000    267.99784   -127.40435   -97.508786   -127.40435            0    6578.0964     16.99634    20.019442    20.735494    7055.4018    4754.1006    6294.6299    8685.5586   -2628.2939    777.71624   -595.66526 
   18500    268.95427   -126.11975   -96.117492   -126.11975            0    9960.6349    16.978897    19.998897    20.714215    7033.7026    10525.757    11484.721    7871.4266   -755.07849      4525.71   -593.20397 
   19000    265.26547   -125.45044   -95.859676   -125.45044            0    8878.1347    16.944456     19.95833    20.672197    6990.9867    9820.1422    9970.0679    6844.1941    2320.6217   -2502.5808   -931.73059 
   19500    267.28057   -125.25836   -95.442812   -125.25836            0     10334.23    16.999789    20.023505    20.739702    7059.6982    4817.1568    13046.995     13138.54   -461.97672    1615.0903    2319.6163 
   20000    261.00119   -125.62873   -96.513655   -125.62873            0    8882.7288    16.972116    19.990909    20.705941    7025.2777    8370.5843    7550.7725     10726.83    1951.2526   -569.06738   -1517.0936 
   20500    262.79403   -125.73343   -96.418364   -125.73343            0    6723.0253    16.934243    19.946301    20.659737    6978.3533    3061.8443    9135.8684    7971.3631    1163.8214    2117.3666   -2754.4088 
   21000    259.97003   -125.86251   -96.862466   -125.86251            0    9805.3697    16.924636    19.934985    20.648016    6966.4826     10208.65    11562.678    7644.7808     288.9862   -39.885199   -1358.0366 
   21500    256.20565   -125.94877   -97.368646   -125.94877            0    8069.8485     16.93567    19.947982    20.661478    6980.1174    8621.9343    8896.5003    6691.1109    2132.8449   -2506.9534     1634.426 
   22000    273.37449   -126.08693   -95.591595   -126.08693            0    12648.189    16.853749     19.85149    20.561534    6879.3143    14244.547    10696.741     13003.28    1463.4642    1612.3539   -1382.0265 
   22500      254.523   -124.07897   -95.686543   -124.07897            0    4983.3561    16.969485    19.987811    20.702732    7022.0118    6079.4461    3781.1064    5089.5159    332.30664   -2431.8602     336.4692 
   23000    248.51089   -123.20873   -95.486962   -123.20873            0    11136.909     16.91389    19.922328    20.634906    6953.2218    8498.5418     13849.54    11062.647    65.803102    2461.6803    135.68894 
   23500    269.81161   -124.85882   -94.760933   -124.85882            0    5544.5948    16.940542     19.95372    20.667421    6986.1425    8457.8224    2514.5075    5661.4545    403.35202    1883.3064   -1343.7782 
   24000    273.10134   -123.29023   -92.825369   -123.29023            0    12855.799    16.854878    19.852819    20.562911    6880.6963    15582.391    11503.675     11481.33   -178.23635    459.87151    -2671.068 
   24500    261.56616   -123.98725   -94.809154   -123.98725            0    8073.6128    16.925525    19.936032    20.649101    6967.5808    6148.8185    9774.0952    8297.9247    1964.4173    424.68929   -2226.1954 
   25000     276.7682   -123.81216   -92.938253   -123.81216            0    6623.4842    16.837891    19.832811    20.542188    6859.9138    4089.1421    6975.8485    8805.4622    818.31255   -2215.8074    795.44208 
   25500    272.05369   -123.52196   -93.173957   -123.52196            0    11662.107    16.871979    19.872962    20.583775    6901.6617     10743.49    10470.893    13771.937    440.87858    3054.1026   -2069.9834 
   26000    270.03436   -123.71828   -93.595542   -123.71828            0    9477.3472    16.932189    19.943881     20.65723    6975.8133    8555.6824      5567.48    14308.879   -11.048465    3209.7467   -284.69668 
   26500    268.31988   -124.65798   -94.726492   -124.65798            0    7930.0945    16.922528    19.932502    20.645444    6963.8801    8802.7106    6007.1049    8980.4682   -950.06333   -563.22455    -1918.815 
   27000    270.68326   -122.69766   -92.502533   -122.69766            0    11009.101    16.880894    19.883463    20.594651    6912.6076    12331.441     11391.47    9304.3907    -2008.937    2334.1219    1661.2193 
   27500    274.15833   -124.50628   -93.923504   -124.50628            0    7045.1674    16.924934    19.935336     20.64838    6966.8512    6566.1769    7408.5005     7160.825   -221.90507   -1647.1123   -1053.7835 
   28000    266.65776   -125.57092   -95.824845   -125.57092            0    11078.911    16.900297    19.906317    20.618323    6936.4715    12781.273    12720.638     7734.822   -223.51188   -2073.4505    1979.0971 
   28500    272.58489   -124.80228   -94.395022   -124.80228            0    8023.9096    16.949112    19.963814    20.677876    6996.7507    8591.5258    9680.8334    5799.3695   -437.59658   -735.13674   -873.31223 
   29000    260.95158   -123.78763   -94.678088   -123.78763            0    8234.0662    16.975312    19.994674    20.709841    7029.2479    7245.7927    6716.2964     10740.11   -1827.0327    -2306.045    2585.8592 
   29500    286.13593   -123.99443    -92.07554   -123.99443            0    10881.488    16.871083    19.871907    20.582682    6900.5621    11495.671    9063.4245    12085.369    240.79205    2249.1637   -3359.2611 
   30000    283.87652   -123.55989   -91.893038   -123.55989            0    9954.0253     16.99958    20.023259    20.739447    7059.4378    7276.0889    15259.791    7326.1954    3601.3412      2357.44   -564.72667 
   30500    258.89975   -122.60377   -93.723115   -122.60377            0    9323.4389    17.014082     20.04034    20.757139    7077.5199    9218.8774    9342.6169    9408.8224    -205.3571   -556.97585    -1991.425 
   31000    271.27077   -124.11317   -93.852504   -124.11317            0    8063.6109    16.961552    19.978467    20.693054    7012.1684    8609.9048    5660.9821    9919.9458    818.57518    2261.8371    626.60948 
   31500    265.90598    -124.7135   -95.051285    -124.7135            0     9479.838     16.97236    19.991197    20.706239    7025.5808    9502.4417    8865.9773    10071.095   -503.56131    88.916575    114.07024 
   32000    268.87163   -124.91522   -94.922186   -124.91522            0    9324.0975    16.920705    19.930354     20.64322    6961.6294    10525.221    10028.717    7418.3543    102.13762   -2362.6334    308.21872 
   32500    270.02288   -125.09736   -94.975901   -125.09736            0    8760.4718    16.927146    19.937942    20.651079    6969.5833    11586.648    8574.5572    6120.2098     352.2328     1621.295   -596.52151 
   33000    256.68525   -124.20359   -95.569964   -124.20359            0    8790.5629    17.002862    20.027125    20.743452     7063.528    7247.9366    8153.0518      10970.7   -249.94928    1414.5018    429.05553 
   33500    270.44412   -124.84293   -94.674484   -124.84293            0    6524.4937     16.98523    20.006357    20.721941    7041.5762    4960.7352    8326.9329    6285.8129    919.81575   -737.09075    20.007274 
   34000    262.30716   -125.77335    -96.51259   -125.77335            0    10704.871    16.943035    19.956656    20.670463    6989.2277    9006.7883    6894.9029    16212.923   -785.83271    526.88655    707.89217 
   34500    258.66189   -127.01405   -98.159931   -127.01405            0    7587.8814    16.979324      19.9994    20.714735    7034.2329     9486.129     3504.731     9772.784   -231.61779    35.787569   -1380.6559 
   35000    257.29757   -126.95122   -98.249287   -126.95122            0    6668.5154    16.998089    20.021503    20.737629    7057.5812    7787.3697    6836.8141    5381.3625     2369.933   -2944.3191    520.14205 
   35500    260.49504   -126.72552   -97.666905   -126.72552            0    11122.222    16.941553    19.954911    20.668655    6987.3942    12706.481    9475.9665    11184.217   -770.13051    -384.9404   -960.68896 
   36000    261.77764   -126.67955   -97.477857   -126.67955            0    9601.4986     16.98179    20.002304    20.717743    7037.2979    10711.283    8905.4398    9187.7734    1254.0851    1858.0433   -340.03017 
   36500    262.44851   -125.43929   -96.162764   -125.43929            0    10708.511    16.997208    20.020465    20.736553    7056.4831    12526.722    10926.172    8672.6392   -620.34201    293.73842   -951.60151 
   37000    264.93898   -125.98601   -96.431663   -125.98601            0    8439.3333     17.02866    20.057512    20.774925    7095.7287    8901.1292    7327.4854    9089.3855    3037.9362    2836.1808   -1533.0356 
   37500    267.98695   -125.87517   -95.980818   -125.87517            0    9080.6648    16.964754    19.982238     20.69696    7016.1401    7881.1482    8552.5484    10808.298   -1622.0255   -182.42126   -258.50472 
   38000    267.79732   -125.29274   -95.419549   -125.29274            0    6240.6671    16.995942    20.018973    20.735009    7054.9064      6514.99    7435.7198    4771.2915     4039.062   -2304.3937   -2206.7728 
   38500    273.11812   -125.98696   -95.520221   -125.98696            0    8578.8803    16.953121    19.968536    20.682768    7001.7169    6555.8728    10221.167    8959.6016    622.95844    324.78243   -99.498196 
   39000    267.78889   -125.97525   -96.102996   -125.97525            0    9557.9763    16.946116    19.960286    20.674222    6993.0417    11917.263     10483.72    6272.9458   -1082.4728   -1479.6401    564.61714 
   39500    262.35619   -124.43373   -95.167505   -124.43373            0    8819.0803    16.964386    19.981805     20.69651    7015.6832    9125.6327    6847.7174    10483.891   -959.83771    2333.8248     -2560.04 
   40000    266.13331   -125.82019   -96.132614   -125.82019            0    6276.8186    16.986175     20.00747    20.723093    7042.7512    7297.9906    5332.4348    6200.0304    1421.8208   -1263.9379     3222.324 
   40500    248.78238   -124.15074   -96.398695   -124.15074            0    8111.3892    16.908191    19.915615    20.627954    6946.1959    6973.2071    9665.9046    7695.0559   -912.68701   -1064.4255   -1493.8441 
   41000    254.88005   -123.86546   -95.433206   -123.86546            0     13684.56    16.991097    20.013267    20.729098    7048.8752    14674.158    13985.644    12393.879    773.60795   -2183.5487   -231.12627 
   41500     264.1395   -123.46201   -93.996852   -123.46201            0    7835.9763    16.974725    19.993982    20.709124    7028.5181    5573.2133    10035.336    7899.3791   -878.41233    1536.1466   -2431.3531 
   42000    269.43593   -124.28424   -94.228252   -124.28424            0    12189.291    16.946601    19.960856    20.674813    6993.6415    13604.052    8597.9998     14365.82   -1895.4789   -3271.7848    -727.7214 
   42500    269.63601   -124.92913   -94.850827   -124.92913            0    8861.1798    17.024345    20.052429    20.769661    7090.3359    11033.193    8037.3784    7512.9677    2126.2971    3474.7766    3808.0955 
   43000    269.07003    -123.6461   -93.630931    -123.6461            0    8783.3567    16.949194    19.963911    20.677977    6996.8527    5963.9833    13762.857    6623.2293   -572.69547   -54.429262    407.60151 
   43500    271.01143   -125.39194   -95.160209   -125.39194            0    11119.258    16.875352    19.876934    20.587889     6905.801    9525.0547     13397.23    10435.488    1763.8839    1580.0294     803.2793 
   44000    263.42663   -125.21995   -95.834317   -125.21995            0    8745.2654     16.97821    19.998088    20.713376    7032.8489    8574.8945    11179.182    6481.7194    2601.7344    333.88027   -909.40547 
   44500    273.62903    -125.3654   -94.841668    -125.3654            0    11293.685    16.935615    19.947916     20.66141    6980.0487    10771.147    13003.416     10106.49   -3689.3901     1966.195   -3724.2343 
   45000    254.44915   -126.08983   -97.705645   -126.08983            0    8697.0904    16.938472    19.951282    20.664896    6983.5824    9010.5094    13257.675    3823.0865    309.99488   -995.34951    1029.1928 
   45500    261.28406   -126.87636   -97.729727   -126.87636            0    9826.7858    16.935476    19.947753    20.661241    6979.8774    13955.311    6846.0454    8679.0015   -516.80661    3822.1093    736.47816 
   46000     256.7813   -125.42519   -96.780853   -125.42519            0    8001.9999    16.913556    19.921934    20.634498    6952.8097    8008.7376    9217.1817    6780.0804    529.17467    2702.2956    1586.2179 
   46500     260.7297    -125.6414   -96.556606    -125.6414            0    10753.058    16.942653    19.956206    20.669996    6988.7545     13488.74    9849.3686    8921.0651    2424.0137    -3358.802   -2229.5135 
   47000    270.97336   -126.66967   -96.442183   -126.66967            0    8626.1255    16.982302    20.002908    20.718368    7037.9349    9360.9405    7718.8202    8798.6157   -902.54217   -2516.4792    3500.2565 
   47500     262.7826   -125.01403    -95.70024   -125.01403            0    9026.5905    16.977049     19.99672     20.71196    7031.4059    7841.5382    9761.1101    9477.1232   -2394.7378   -160.04897   -237.91581 
   48000    266.30211   -125.23727   -95.530865   -125.23727            0    9489.1747    16.997891     20.02127    20.737387    7057.3344    10422.211    9318.5521    8726.7612    476.72241    799.16055   -1344.8691 
   48500    265.49961   -125.61618   -95.999301   -125.61618            0    11113.819    16.886395    19.889942    20.601362    6919.3673     10578.96    11558.514    11203.983   -3904.8982   -1002.5897   -1933.0427 
   49000     279.1643    -127.0116   -95.870401    -127.0116            0    3891.4645    17.009778    20.035271    20.751889    7072.1505     2921.518    5146.9191    3605.9565   -213.51145    -1301.502    464.48757 
   49500    278.46896   -122.97886   -91.915227   -122.97886            0    6943.4743    16.944376    19.958236    20.672098     6990.887    5825.7142    6804.2276    8200.4813    1915.3823    190.46495    2609.5763 
   50000    267.87704   -123.90569   -94.023608   -123.90569            0     9645.431    16.895934    19.901177    20.612999    6931.0996    8537.3482    10710.202    9688.7432   -755.27394    1929.4253    146.56654 
   50500    262.98284   -125.09327   -95.757134   -125.09327            0    7773.2381    16.902846    19.909319    20.621432    6939.6102    6883.9805    9642.7623    6792.9714    894.41854    2741.0468   -1086.2861 
   51000    267.77277   -124.52475   -94.654292   -124.52475            0    9958.6601     16.94857    19.963176    20.677216      6996.08    8880.5674    8040.2671    12955.146    910.75937    1111.4423   -1176.4331 
   51500    266.54956   -125.65085   -95.916848   -125.65085            0    10129.965    16.880509    19.883009    20.594181    6912.1348    15017.165    7142.3291    8230.4001   -828.90598    2545.6973    -335.0342 
   52000    253.45607   -126.07358   -97.800177   -126.07358            0    5539.1134    16.900048    19.906023    20.618019    6936.1644    7467.7608    4567.0787    4582.5009   -2448.7813    766.39784   -3776.7638 
   52500    269.76807   -125.73119   -95.638152   -125.73119            0    7846.2544    16.928544    19.939588    20.652784    6971.3102     10062.04    5957.3267     7519.397    82.298963   -71.522316    4477.7216 
   53000    264.49525   -126.96021   -97.455365   -126.96021            0    7366.4152    16.961243    19.978104    20.692677    7011.7856    5787.1033    10709.443    5602.6996    2026.4614   -1798.4891   -2530.3016 
   53500    268.09081   -126.59351   -96.687574   -126.59351            0     11191.85    16.812398    19.802783    20.511086    6828.8026    10949.921    9354.2665    13271.363   -707.98423    3345.9726    4138.5299 
   54000    267.88414   -126.45523   -96.572352   -126.45523            0     3139.575    16.956811    19.972883    20.687269    7006.2899     2993.315    3884.3489    2541.0612    -224.8436   -3733.5616    1097.1024 
   54500    259.66982   -127.50995   -98.543393   -127.50995            0    11617.438    16.891472    19.895922    20.607556    6925.6107    13316.062    9859.0668    11677.186   -3395.2806   -146.45144   -2355.6921 
   55000    262.61055   -125.70475    -96.41015   -125.70475            0    7666.0576    16.797025    19.784676    20.492331     6810.087    10656.946    5940.4773    6400.7491    1444.1684    1952.1107    502.71445 
   55500     251.5137   -126.25453   -98.197793   -126.25453            0    9535.5451    16.881929    19.884681    20.595913    6913.8785    11329.635    6779.6204     10497.38    1278.8599   -541.02376     2190.852 
   56000    266.41183   -125.48247   -95.763832   -125.48247            0    11188.382    16.861511    19.860632    20.571003    6888.8228    7177.7124    10971.364    15416.071    4574.4934    3020.1858   -1053.8811 
   56500    259.29544   -124.51592   -95.591124   -124.51592            0    9415.9893    16.918629    19.927909    20.640687    6959.0676    6365.2438    11910.645     9972.079    658.04698   -2336.9053    1004.6448 
   57000    262.92999   -125.62417   -96.293933   -125.62417            0    9438.9939    16.944423    19.958292    20.672157     6990.946    9844.4578    10462.825    8009.6988    3256.2822   -191.59568   -149.80693 
   57500    266.57501    -125.2467   -95.509852    -125.2467            0    10052.129    16.836836    19.831568      20.5409    6858.6241    9842.6278    7272.6185    13041.141    1158.2948    1541.4404    697.60213 
   58000    259.77861   -125.02148   -96.042783   -125.02148            0    9303.0843    16.978138    19.998003    20.713288    7032.7585    12983.459    10348.186    4577.6081   -360.08502   -67.562974    320.15131 
   58500    274.96456   -126.24777   -95.575057   -126.24777            0    12128.325    16.839277    19.834443    20.543878    6861.6076    14117.141    11193.893    11073.941   -592.44024    2303.3938    2296.6297 
   59000    273.14587   -125.92817    -95.45834   -125.92817            0    10894.736     16.93767    19.950337    20.663918    6982.5905    7728.2113    11674.743    13281.254    1527.4868    3474.9097   -1125.1433 
   59500    270.90617   -125.90436   -95.684365   -125.90436            0    7642.6705    16.945879    19.960006    20.673932    6992.7476     8601.941    4482.9891    9843.0813   -1197.5389    883.91839    1934.8847 
   60000     260.4529   -125.37992   -96.326008   -125.37992            0    8012.9888    16.913287    19.921617     20.63417    6952.4778     6522.924    11555.454     5960.588   -699.45001   -466.08966    397.89956 
   60500    266.80094   -126.48886   -96.726812   -126.48886            0    9446.8955    16.879527    19.881853    20.592983    6910.9286    10072.373    8506.3509    9761.9628    2090.8323    3304.5294   -2673.7141 
   61000    261.18735   -126.17431   -97.038464   -126.17431            0    11404.493    16.964393    19.981814     20.69652    7015.6928    11622.838    11989.902    10600.739    1350.4512    68.836665   -797.38411 
   61500    275.93119   -126.49518   -95.714645   -126.49518            0    11557.895    16.909859    19.917579    20.629988    6948.2512    11136.998    10168.254    13368.432   -660.42162     3207.337   -1609.9503 
   62000    263.85891    -125.1182   -95.684344    -125.1182            0    10827.371    16.945161     19.95916    20.673056    6991.8584    10944.183    10931.053    10606.876    76.368985   -4245.9066   -2391.4815 
   62500    270.46938   -125.57823   -95.406967   -125.57823            0    8168.2409     16.89591    19.901149     20.61297    6931.0704    7228.5423    8629.1708    8647.0097    838.58801    1820.8003     588.1479 
   63000    270.62822    -123.5638   -93.374817    -123.5638            0    8130.7434    16.846949     19.84348    20.553238    6870.9903    11303.153    4891.9739    8197.1038    1615.3033   -2887.1345    -1567.723 
   63500    264.24269   -125.85307   -96.376403   -125.85307            0    9696.7918    16.891898    19.896424    20.608076    6926.1348    6098.4475     12388.05    10603.878    1535.0925    -1884.425   -993.79365 
   64000     270.8122   -126.30429    -96.09478   -126.30429            0    8377.0241    16.917121    19.926133    20.638848     6957.207    10795.103    8033.9678    6302.0019    44.134514    2413.7825   -1067.2522 
   64500     271.4782   -126.69763   -96.413829   -126.69763            0    9197.2242    16.943999    19.957791    20.671638    6990.4202    2752.1139    10444.138     14395.42    2537.3845    1041.2057   -662.30068 
   65000    253.89127   -126.79625     -98.4743   -126.79625            0    9933.7207    16.900414    19.906455    20.618465    6936.6152    6272.6684     12389.13    11139.364   -1065.6338    706.36953    155.15539 
   65500    261.01789   -126.47595   -97.359011   -126.47595            0    9044.8254    16.941125    19.954406    20.668132     6986.864    7856.0905    9564.3199    9714.0657    893.92161   -727.28224    1864.4538 
   66000    260.44306   -124.08978   -95.036963   -124.08978            0    4013.7397     17.02234    20.050067    20.767214    7087.8303    5499.1283    3980.0666    2562.0241    459.08143    1467.3546    838.96517 
   66500    273.29715    -125.7528   -95.266093    -125.7528            0    9483.1011    16.878069    19.880135    20.591204    6909.1371    8227.6339    11140.256    9081.4137   -729.79729   -1677.8807    3447.4722 
   67000    255.98181   -126.23801    -97.68285   -126.23801            0    9222.9322    16.960677    19.977436    20.691986    7011.0829    10337.697    9303.7299    8027.3699    1803.7719     3721.714    793.46454 
   67500    266.51676   -126.69009   -96.959742   -126.69009            0    8706.5187    16.887937    19.891758    20.603243    6921.2631    5818.3396    6287.5429    14013.674   -1299.8718    468.39564    1215.3467 
   68000    254.04526   -125.26212   -96.922984   -125.26212            0    10141.231    16.872335    19.873381    20.584209    6902.0981    9180.2165    11375.939     9867.537    322.70035    1771.3025   -90.540431 
   68500    265.17671   -126.24082   -96.659961   -126.24082            0    9624.1023    16.933078    19.944928    20.658315    6976.9124    9544.9399    11297.764    8029.6026    505.06573    300.13663   -350.43498 
   69000    256.22932   -126.58635   -98.003581   -126.58635            0    7122.3197    16.902234    19.908599    20.620686    6938.8566    6812.3257     8014.516    6540.1172    872.06146    633.37627    1895.5339 
   69500    262.78016   -126.60921    -97.29569   -126.60921            0    11697.324     16.89165    19.896131    20.607772    6925.8287    9092.5629    11990.892    14008.516   -979.00244    1358.5405   -1320.4895 
   70000    264.80168   -126.63914   -97.100114   -126.63914            0    9387.7099    16.927359    19.938192    20.651338    6969.8455    9829.5762    9825.6926    8507.8608    1584.7346   -580.61872   -835.40986 
   70500    273.83959   -127.25991   -96.712694   -127.25991            0    9058.3131    16.805136     19.79423    20.502226    6819.9573    6592.6974    9252.9986    11329.243    80.815955    112.38875   -2023.3514 
   71000    258.82356   -126.63924   -97.767086   -126.63924            0    7843.0371    16.874683    19.876147    20.587073      6904.98    8185.5006    6557.8615    8785.7493    116.96536   -1044.9402    540.28872 
   71500    265.98694   -126.74563   -97.074383   -126.74563            0    9699.1242    16.865952    19.865863    20.576422    6894.2677    10389.363    10256.576    8451.4337    883.20011    -32.50033   -2102.5734 
   72000    280.29223   -124.96157   -93.694546   -124.96157            0    7048.5484    16.876837    19.878684    20.589701    6907.6246    6341.1287    6765.2201    8039.2966    3689.9801   -3198.4998     150.9087 
   72500    267.72382    -125.6162   -95.751202    -125.6162            0    9672.4472    16.925316    19.935786    20.648846    6967.3227    6814.6275    9995.4104    12207.304    2115.4858   -3943.5216    -417.7195 
   73000    263.62439   -127.08263   -97.674932   -127.08263            0    7182.9618    16.852684    19.850235    20.560235    6878.0097    6523.9452    8543.9337    6481.0065    2914.2765   -775.61996    3186.6182 
   73500    271.01848   -127.09141   -96.858887   -127.09141            0    14201.985    16.857507    19.855916    20.566119    6883.9173    13572.622    13482.852    15550.481    1348.2708   -245.85311   -1339.3394 
   74000    271.02248   -128.00149   -97.768519   -128.00149            0    8026.4422    16.931547    19.943124    20.656447    6975.0199    11347.133    4868.5278    7863.6659    277.42567   -2854.3517    809.48977 
   74500    259.86861   -125.41547    -96.42673   -125.41547            0    9326.9836    16.823112    19.815403    20.524157    6841.8666    9369.5496    11608.607    7002.7944   -2194.9053    1993.1645    3810.4862 
   75000     269.4561   -126.61838   -96.560145   -126.61838            0    10253.043    16.802578    19.791216    20.499105    6816.8431    9631.3199    12291.962    8835.8472   -2675.9344    -3493.742    3262.6117 
   75500    268.27424   -129.33486   -99.408464   -129.33486            0    7464.6614    16.958666    19.975067    20.689532    7008.5893    7092.2767    9909.5828    5392.1247   -69.241734    3376.4331   -2449.1277 
   76000    267.72006   -127.37431   -97.509737   -127.37431            0    10627.929    16.850867    19.848095    20.558018    6875.7855    13150.193    9926.1846    8807.4088   -1731.2261    1883.6502    1997.7205 
   76500    248.09549   -128.10916   -100.43373   -128.10916            0    10321.825     16.84188    19.837509    20.547054      6864.79    9266.6234    10319.576    11379.275    305.28112    3956.6594   -732.44616 
   77000    248.52618   -127.07311   -99.349645   -127.07311            0    7812.3161    16.841385    19.836926     20.54645    6864.1846    7690.9789    9168.3369    6577.6326   -894.64159      4243.01   -597.95183 
   77500    266.77499    -127.1114   -97.352246    -127.1114            0    12509.728    16.869967    19.870591    20.581319    6899.1919    13150.066    12226.398    12152.721    1591.5349    107.95313    940.36886 
   78000    268.10274   -124.75821   -94.850944   -124.75821            0    10893.567    16.902703    19.909151    20.621258    6939.4339    15695.869    8820.3007    8164.5304   -2277.5393    -2168.879    -680.3114 
   78500    262.05373   -127.71177   -98.479284   -127.71177            0    8137.9897    16.865436    19.865255    20.575792    6893.6346    7737.0215      9213.78    7463.1677   -3258.9487    17.172208   -1099.8898 
   79000    262.20826   -127.07298   -97.823253   -127.07298            0    13136.983    16.863492    19.862965     20.57342    6891.2513     13315.94    16486.277     9608.732    1165.1919   -2215.7561    -437.8859 
   79500    282.59918   -127.09327   -95.568906   -127.09327            0    9028.4015    16.856327    19.854525    20.564679    6882.4709    8005.9717     10319.26     8759.973    1389.7214      1382.88   -369.46559 
   80000    276.18017   -126.44982   -95.641508   -126.44982            0    8484.4071    16.911945    19.920036    20.632532    6950.8225    3478.7509    11323.529    10650.941     1523.804   -1552.8986    1069.2538 
   80500    270.69308   -126.50869    -96.31247   -126.50869            0    12547.834    16.846901    19.843423    20.553179    6870.9312    15034.483    12860.483    9748.5363    1337.8141    3715.6944    2669.3023 
   81000    259.50547   -126.62718   -97.678957   -126.62718            0     8321.198    16.899413    19.905276    20.617244    6935.3827    9458.6449    8646.0091    6858.9401   -328.35246   -961.30019   -305.14031 
   81500    268.92988   -127.92299   -97.923462   -127.92299            0    12602.456    16.864724    19.864416    20.574923    6892.7614    10840.691    11475.342    15491.334     739.3482    1301.0108    -1171.367 
   82000    260.18179   -127.30712   -98.283449   -127.30712            0    7791.0999    16.829386    19.822793    20.531811    6849.5237    7462.9203    9353.8167    6556.5628   -1342.4398   -2523.1357    4207.9335 
   82500    277.97678   -126.36693   -95.358198   -126.36693            0    10028.706    16.868942    19.869385    20.580069     6897.935    7324.0197    12540.359    10221.738   -761.13104   -727.21021   -909.22272 
   83000    259.30253   -125.17513   -96.249543   -125.17513            0    7501.5982     16.95347    19.968947    20.683193    7002.1493    7788.5438    9584.5733    5131.6775     1493.157    1149.1475      277.435 
   83500    275.59724   -127.50428    -96.76099   -127.50428            0    8519.3437    16.845992    19.842352     20.55207    6869.8191    6309.7454     11826.56    7421.7255   -3149.4232   -976.94406    1441.6721 
   84000    273.13646   -125.74868   -95.279899   -125.74868            0    8683.7363     16.86441    19.864046     20.57454    6892.3764     13176.67    5431.4137    7443.1251   -1290.3732   -410.24359    1585.9523 
   84500    271.32418    -126.3913   -96.124681    -126.3913            0    8066.5935    16.825158    19.817813    20.526653    6844.3628    9464.8303      8819.45    5915.5001   -4612.9843   -1109.4598   -2081.4426 
   85000    273.36646   -128.27677   -97.782332   -128.27677            0    10684.077    16.822402    19.814566     20.52329    6840.9992    13168.414    8459.8851    10423.931   -1588.4918    1257.4004   -2341.5611 
   85500    276.00697   -126.72163   -95.932637   -126.72163            0    4096.0956    16.874005    19.875348    20.586246    6904.1478    3170.9052    9136.7126   -19.330889    3541.3099   -2985.1829   -1629.5859 
   86000    267.89965   -127.39217    -97.50756   -127.39217            0    9656.1702    16.891851    19.896369    20.608019    6926.0768     7905.917    11056.245    10006.349    855.74817    1092.8838    3294.7006 
   86500    269.41615   -128.17767   -98.123895   -128.17767            0    9287.2454    16.861048    19.860087    20.570439     6888.256    8761.5997    13568.738    5531.3987   -3381.3734   -1432.9481    1440.4009 
   87000    259.48394    -128.3732   -99.427372    -128.3732            0    9332.8007     16.81023     19.80023    20.508441    6826.1614    9911.9033    7353.9851    10732.514   -1646.0684    653.07746    245.57806 
   87500    253.16394   -126.05225   -97.811428   -126.05225            0    11958.634    16.843154    19.839009    20.548608    6866.3479    12731.119    8202.3966    14942.385    236.24734    1622.5983    4928.7374 
   88000      277.662   -128.34115   -97.367533   -128.34115            0     7090.055    16.879449     19.88176    20.592888    6910.8322    6406.6486    10635.907    4227.6096   -1679.6358    1678.5641   -3088.8454 
   88500    275.88751   -128.81437   -98.038707   -128.81437            0    11440.332    16.808875    19.798634    20.506788    6824.5107     12100.06    12576.621    9644.3159    -1152.793    446.79992   -1672.2719 
   89000    251.94955   -128.28552   -100.18017   -128.28552            0    9117.2567    16.820728    19.812594    20.521248    6838.9573    6713.0236    12071.799    8566.9477   -64.064659    260.40372    123.65307 
   89500    246.03035   -127.52252   -100.07747   -127.52252            0    8671.6735    16.853345    19.851014    20.561041    6878.8194    9713.0415     6137.199     10164.78   -1488.1937   -2558.6741   -1215.3999 
   90000    245.27541    -127.4114   -100.05056    -127.4114            0    7585.5051    16.751185    19.730683    20.436407    6754.4843    9185.8118    6143.6204     7427.083   -548.20188    750.24473    -826.0489 
   90500    266.08187   -128.11262    -98.43079   -128.11262            0    7027.1394     16.83378    19.827968    20.537171    6854.8898    6314.6363    6042.1315    8724.6505   -760.49318    3137.1951     1870.322 
   91000    255.80152   -126.99263   -98.457588   -126.99263            0    7251.7225    16.844743    19.840881    20.550546    6868.2915    7965.0929    7591.2447    6198.8298   -656.96126    140.07875    736.21171 
   91500     252.2713   -128.17521   -100.03396   -128.17521            0    5999.9942    16.768979    19.751641    20.458114    6776.0312    9058.0383    3571.3886    5370.5556   -3056.3093    1361.8245   -878.20535 
   92000    261.52108   -127.87432   -98.701254   -127.87432            0     10178.04    16.790241    19.776685    20.484054    6801.8388    11620.843    7608.7369    11304.539   -1785.0474    757.74317    3738.6497 
   92500    260.94485   -128.20237   -99.093579   -128.20237            0    9422.3218    16.880233    19.882683    20.593844    6911.7949    8675.1044    7664.8815     11926.98    502.05996   -160.79669      2832.63 
   93000    272.41085   -128.17488   -97.787037   -128.17488            0    10973.023    16.740298    19.717859    20.423124    6741.3232    9437.8756    11787.261    11693.932   -1668.6017   -2564.2329    552.36952 
   93500    263.43153   -128.50311   -99.116927   -128.50311            0    5824.3645     16.87233    19.873376    20.584203    6902.0923    6402.9604    7131.9016    3938.2314   -256.93588    327.94347   -286.11874 
   94000    255.17804   -126.91112   -98.445631   -126.91112            0    9262.8265    16.782622    19.767711    20.474759    6792.5833     10224.88     6111.384    11452.215    -462.1045    -1505.379    648.16624 
   94500    266.79495   -128.67464   -98.913264   -128.67464            0    8904.1525    16.775081    19.758828    20.465559     6783.431    10453.808    7198.5435    9060.1058   -241.04716   -1487.6366   -1672.9389 
   95000    250.00841   -128.59515   -100.70634   -128.59515            0    7478.9579    16.850605    19.847786    20.557699    6875.4651     10706.47    4515.6906    7214.7133   -1384.6547   -2695.6992    1852.4321 
   95500    261.50072   -126.95833   -97.787528   -126.95833            0    10664.985    16.803595    19.792415    20.500346    6818.0815    12089.068    9501.9867      10403.9    253.70268    1281.8827    1500.0951 
   96000    272.06363   -126.93944    -96.59033   -126.93944            0    9953.0714    16.829372    19.822777    20.531794    6849.5069    8963.5552    13250.066    7645.5933    182.46086    1754.1197   -1114.5358 
   96500    271.75534   -127.86865   -97.553931   -127.86865            0    11301.244    16.826857    19.819814    20.528726    6846.4363    7247.8963    11036.972    15618.864    1508.0744   -1439.8828   -869.14288 
   97000    264.77318   -128.08709   -98.551245   -128.08709            0    6062.8122    16.831926    19.825785     20.53491    6852.6256    6422.4897    7672.5184    4093.4286   -697.49388   -3049.3864   -1295.6088 
   97500    265.10899   -127.51717    -97.94386   -127.51717            0    7944.2457    16.852129    19.849581    20.559558    6877.3307    7833.2259    7112.9861    8886.5251   -3893.9762    750.58567    877.70046 
   98000    265.00954   -128.12894   -98.566724   -128.12894            0    9645.3987    16.797254    19.784946    20.492611     6810.366    7925.1787    10732.771    10278.246     1613.065    -2039.084   -3357.4839 
   98500    260.06572    -126.5337   -97.522981    -126.5337            0      11850.9    16.780545    19.765265    20.472225    6790.0623    11780.694    12658.109    11113.898    285.91739   -1871.2011    490.23555 
   99000    266.89981   -127.53368   -97.760603   -127.53368            0    9140.4694    16.840707    19.836127    20.545623    6863.3559    7432.4348    8466.5099    11522.463   -872.90466   -2612.8773    3575.3223 
   99500    275.09315   -125.95785   -95.270794   -125.95785            0    5102.0584    16.824402    19.816922    20.525731    6843.4401    3333.9823    5557.6126    6414.5803    868.32445    -466.8997   -625.78712 
  100000    271.17732   -126.63709   -96.386847   -126.63709            0    9576.6376    16.825616    19.818352    20.527211    6844.9212    11414.508    4476.0884    12839.316    3185.7397     548.0415    273.46729 
  100500    270.05244    -126.0007   -95.875945    -126.0007            0    12453.917    16.768959    19.751618    20.458091    6776.0076    10588.416    11415.542    15357.794    1408.3422    146.74913    3578.0043 
  101000    255.41625     -126.078   -97.585932     -126.078            0    8149.4527    16.829044     19.82239    20.531394    6849.1065    9295.9158    6617.8345    8534.6079   -1680.9897    2465.3728     462.2525 
  101500    274.54206   -128.13193   -97.506353   -128.13193            0    8290.5308    16.794976    19.782263    20.489832    6807.5957    7317.1439    7273.3576    10281.091    234.32332   -138.79071   -1385.7501 
  102000    266.83918   -127.30687   -97.540553   -127.30687            0    11566.021    16.761828    19.743218    20.449391    6767.3665    10440.466     11576.44    12681.157    1422.7035    4225.0969    43.061786 
  102500    261.77219   -127.22675   -98.025668   -127.22675            0    5254.0094    16.885643    19.889056    20.600444    6918.4427    4423.2467    5989.9668    5348.8147    3911.3745    2847.7113   -1019.2867 
  103000    266.36437   -126.17153    -96.45818   -126.17153            0    9450.1015    16.846314    19.842732    20.552463    6870.2135    9992.1064    14241.514    4116.6836    363.97898   -495.10455    250.14019 
  103500     259.1108   -127.05887   -98.154675   -127.05887            0    11067.295    16.788844     19.77504     20.48235    6800.1415    8093.0909    9830.2118    15278.582    2227.6491    153.48602   -896.33146 
  104000    277.96588   -127.64364   -96.636124   -127.64364            0     11983.32    16.818194    19.809611    20.518157    6835.8679    13074.801    13460.546    9414.6129    -506.7119   -261.63924    3833.7349 
  104500    264.04595   -128.28433   -98.829607   -128.28433            0    8863.5726    16.865063    19.864816    20.575337    6893.1777    6888.4743    13290.284    6411.9594    873.82343   -144.50872   -411.89258 
  105000    267.09656   -126.72293    -96.92791   -126.72293            0    9579.0097    16.847314     19.84391    20.553684    6871.4375    8597.1048    8232.8186    11907.106    1871.6872   -1217.0123   -2158.3195 
  105500    260.31375   -125.03958   -96.001194   -125.03958            0    8146.4512     16.80998    19.799935    20.508136    6825.8561    4160.4431    6155.4022    14123.508   -412.60005    1493.9651      1648.44 
  106000    260.50616   -126.40429   -97.344438   -126.40429            0     9573.991    16.853958    19.851735    20.561788    6879.5694    9648.3447    7767.2887    11306.339     1770.607    384.46258    1615.0587 
  106500    263.90888   -127.11877   -97.679335   -127.11877            0    6863.7596    16.869795    19.870389     20.58111    6898.9813    8770.9647    6172.5151     5647.799   -455.61964    1149.1103   -574.38907 
  107000    266.68538   -127.70193   -97.952776   -127.70193            0    8873.5098    16.791064    19.777654    20.485058    6802.8392    10964.228    9659.4476    5996.8537    3021.2687    265.76204    345.51856 
  107500    268.66338   -127.78164   -97.811832   -127.78164            0    7001.6294    16.882427    19.885269    20.596521    6914.4913    2998.6899    7891.3497    10114.849   -2408.3519    437.24409    626.49237 
  108000    259.75963   -125.87726   -96.900682   -125.87726            0    11040.346    16.862441    19.861727    20.572138    6889.9632    12332.142    10004.264     10784.63    2542.9939    674.15591   -952.14896 
  108500    266.61344   -126.21189    -96.47076   -126.21189            0    6677.8503    16.895506    19.900674    20.612478    6930.5739    8351.9115    4263.8893    7417.7502   -440.52455     4474.186    1718.0771 
  109000    259.29098   -126.56915   -97.644853   -126.56915            0    9677.7184    16.801244    19.789645    20.497477    6815.2194    14466.098    6993.6232    7573.4339   -2933.2389    1832.8444   -269.22978 
  109500    268.52749   -127.88094   -97.926297   -127.88094            0    8971.9398    16.881576    19.884265    20.595482    6913.4447    7865.3694    8010.6626    11039.787   -2210.1134   -1245.3549    -1678.307 
  110000    255.00854   -126.39494   -97.948355   -126.39494            0    8837.3668    16.854712    19.852624    20.562709    6880.4933    10550.241     8819.188    7142.6715    924.62512    747.81628   -536.46498 
  110500    261.25834   -129.21445   -100.07069   -129.21445            0    7008.6904    16.788659    19.774822    20.482124    6799.9165    5301.4226    10067.078    5657.5706    1283.5246   -820.22966    1285.1114 
  111000    259.65207   -127.07976    -98.11518   -127.07976            0    10972.382    16.848266    19.845031    20.554845    6872.6021    12279.197    9271.4165    11366.533    -3028.992     384.6881    930.31426 
  111500    264.81091   -127.71302   -98.172967   -127.71302            0    11806.752    16.885978    19.889451    20.600854    6918.8554    9113.3902    11255.996    15050.869    1541.9603   -514.66315    1407.9495 
  112000    267.34881   -128.50341   -98.680249   -128.50341            0     6141.971     16.89302    19.897745    20.609444     6927.514    8203.2206    4189.6147    6033.0775    1684.0112   -2396.8425    -1886.853 
  112500    253.73852   -128.18176   -99.876843   -128.18176            0    12342.074    16.858448    19.857024    20.567267    6885.0695     15822.29    10243.534    10960.399   -703.08783    2821.3623   -1736.1186 
  113000    266.85857    -128.9389   -99.170429    -128.9389            0    8148.4235    16.879347    19.881641    20.592764    6910.7074    6340.6204    11150.346    6954.3036    374.91274    2908.3155   -487.22366 
  113500    265.62117   -127.74953   -98.119088   -127.74953            0    6698.4614    16.888074     19.89192    20.603411    6921.4321    6882.8966    5185.0855    8027.4021    428.63956   -698.75914   -32.722463 
  114000    268.36448   -128.16792    -98.23146   -128.16792            0    9855.7081    16.789766    19.776126    20.483475    6801.2618    9795.0339    12043.186    7728.9048   -282.38581   -2875.7385    843.36989 
  114500    270.34072   -127.24067   -97.083755   -127.24067            0    3953.6421    16.892647    19.897306     20.60899    6927.0559    1448.2761    4000.5624    6412.0877    1694.2675    2575.5135    3129.4775 
  115000    271.34399   -128.24573   -97.976903   -128.24573            0    13214.079    16.869836    19.870438     20.58116    6899.0319    15261.065    13250.462    11130.709    3342.0221    1782.1677   -3586.1436 
  115500     271.0264   -127.49481   -97.261403   -127.49481            0     8893.964    16.836377    19.831028    20.540341    6858.0637    9370.4207    9537.0126    7774.4588   -2529.6705    923.18368    980.19495 
  116000    263.90731   -129.15901   -99.719753   -129.15901            0    9836.1174    16.891434    19.895878     20.60751     6925.564    10796.225    12166.131    6545.9959   -3451.1499   -1298.3999    1298.2593 
  116500    278.20446    -128.2505   -97.216376    -128.2505            0    12377.111    16.869624    19.870187    20.580901     6898.771    8821.0086    12756.068    15554.255   -2922.9409   -2317.3069   -1536.2196 
  117000     250.5119   -128.19415   -100.24917   -128.19415            0    6994.5299    16.926189    19.936815    20.649911    6968.4013    5311.2248    8226.9418    7445.4232   -1605.6953   -1389.9886    1810.1584 
  117500    260.18315   -127.90178   -98.877959   -127.90178            0     9494.606    16.809872    19.799808    20.508004    6825.7251    9585.1427    10008.287    8890.3887    2620.9702   -165.42917    343.13101 
  118000    249.67156   -127.82095   -99.969711   -127.82095            0    8780.6984    16.880297    19.882759    20.593922    6911.8736     7498.368    9985.8813     8857.846   -2873.6047   -393.56658    3152.1207 
  118500    262.71093   -127.26775   -97.961951   -127.26775            0    10068.974     16.87953    19.881856    20.592986    6910.9315    9080.5066     12620.88    8505.5356   -1390.0223   -1411.4106    702.09892 
  119000    257.98892    -128.0474   -99.268352    -128.0474            0    15858.775    16.788725    19.774899    20.482204    6799.9964    14095.508    12108.434    21372.384    -729.8084   -489.73977    270.05788 
  119500    260.27108   -126.03582   -97.002194   -126.03582            0    7475.9692    16.906195    19.913264    20.625518    6943.7356     5460.403    8866.4573    8101.0472    70.273141    588.87564   -2589.5764 
  120000     265.6469    -126.9909   -97.357584    -126.9909            0    10033.368    16.853192    19.850834    20.560855    6878.6322    10447.032    8249.4763    11403.597    367.37586    144.06463   -677.78957 
  120500    267.43464   -128.14737   -98.314632   -128.14737            0    10382.476    16.835175    19.829611    20.538873     6856.594    13130.469    8736.9777    9279.9823    1327.0623   -1669.9396   -1624.9023 
  121000    260.20181   -126.95961   -97.933711   -126.95961            0    6356.4091     16.82371    19.816108    20.524887    6842.5963    10616.216    4188.4575    4264.5536    3072.9863    777.08685   -753.12338 
  121500     274.7706   -129.51622    -98.86515   -129.51622            0    6867.3908    16.820127    19.811887    20.520515    6838.2244    8451.1245    5511.6315    6639.4164    381.99079    2857.8722   -655.14554 
  122000    275.81289   -127.32864   -96.561299   -127.32864            0    6822.4916    16.903695     19.91032    20.622469    6940.6563    4827.0714    7257.8857    8382.5178     3345.814    3417.8856    370.40235 
  122500    273.71655   -126.01386   -95.480364   -126.01386            0    13934.305    16.864609    19.864281    20.574784    6892.6215    14082.434     12814.14    14906.341   -1304.2798    113.34497   -1654.4587 
  123000    264.70022   -127.16818   -97.640468   -127.16818            0    7782.0252    16.862113    19.861341    20.571738    6889.5611    7485.8731    6485.2708    9374.9317    3261.9321    704.30947    771.05141 
  123500    263.51544   -127.13465   -97.739111   -127.13465            0    12738.837    16.828719    19.822007    20.530997    6848.7088    9381.5466    14278.396     14556.57    163.42387    -964.8029   -345.08322 
  124000    266.34989   -127.44463   -97.732902   -127.44463            0    9503.9686    16.869504    19.870046    20.580755    6898.6243    7505.3815    10824.496    10182.028   -2358.6593     1201.578   -1068.0688 
  124500    264.97486   -125.92748   -96.369132   -125.92748            0    8558.3809    16.829009    19.822348    20.531351     6849.063    7449.6315    8430.5252    9794.9859    874.43192   -1876.6226   -1457.4639 
  125000    272.51114   -126.54147   -96.142442   -126.54147            0    12345.971    16.842003    19.837653    20.547203      6864.94    13932.268    16655.011    6450.6354     1324.511   -196.68633   -968.18616 
  125500    264.89771    -125.8424   -96.292666    -125.8424            0    8241.5461    16.928644    19.939706    20.652906    6971.4339    11328.238    5516.9336    7879.4664    1497.9259   -2207.3652    231.03481 
  126000    267.64626   -125.96715   -96.110811   -125.96715            0    14272.124    16.781882    19.766839    20.473856    6791.6851    11448.529    15402.367    15965.476   -971.55501    899.34495   -95.753976 
  126500     262.6785   -128.13311    -98.83093   -128.13311            0    5827.9532    16.896265    19.901568    20.613403    6931.5076      8462.52    5166.5975    3854.7419   -2151.2733   -204.00418    1162.7074 
  127000    266.06827   -126.35575   -96.675431   -126.35575            0    7804.1976    16.900764    19.906866    20.618892    6937.0457    12394.691    5540.6911    5477.2111   -2496.9282    994.33888   -245.28098 
  127500    273.58627   -126.64549   -96.126527   -126.64549            0    14006.139    16.879116    19.881368    20.592481     6910.423    13118.673    13707.316    15192.428   -421.76384   -428.07008    268.66812 
  128000     260.4179   -125.83675   -96.786742   -125.83675            0    9266.3191    16.822139    19.814257     20.52297    6840.6794    6984.3606    13564.092    7250.5048    5084.8092    2547.4266     400.2334 
  128500    266.72542   -126.25349   -96.499873   -126.25349            0    9204.1617    16.825668    19.818413    20.527275    6844.9846    11714.454    6773.3409    9124.6899    1830.0727    1543.3987    2459.4595 
  129000    275.21986   -126.51776   -95.816573   -126.51776            0    12937.276     16.81078    19.800877    20.509111    6826.8306    14402.853    11138.129    13270.845   -1441.9748   -1269.0326    752.50333 
  129500    255.88343   -125.41553   -96.871344   -125.41553            0    9382.9969    16.870343    19.871035    20.581779    6899.6537    8507.1284    10049.324    9592.5381   -209.29247    4061.4391   -2512.0112 
  130000    265.03689   -128.38491   -98.819643   -128.38491            0    10081.949    16.859844    19.858668     20.56897    6886.7803    9391.4011    11340.143    9514.3027   -1745.7926    1220.9836    -752.0247 
  130500    263.79609   -126.14082   -96.713971   -126.14082            0    7148.4706    16.783095    19.768269    20.475337    6793.1585    7333.3544    5723.3937    8388.6636    311.13181   -560.33613   -398.49673 
  131000    253.63502   -126.97481   -98.681446   -126.97481            0    10314.171    16.883525    19.886562    20.597861    6915.8401    12550.246    11465.485    6926.7805    256.00483    2504.4943    1148.1497 
  131500    262.80498   -128.21369   -98.897397   -128.21369            0    11136.616    16.814627    19.805409    20.513805    6831.5189    10194.225    11560.096    11655.529   -1716.4524    3669.5838   -927.32022 
  132000    262.37045   -125.83434   -96.566527   -125.83434            0    9744.1654    16.834179    19.828438    20.537658     6855.377    13123.991    3904.1804    12204.325   -1374.9276    118.25224   -2412.5609 
  132500    279.16113   -126.99942   -95.858572   -126.99942            0    14770.469    16.882487    19.885339    20.596594    6914.5646    17446.632    14798.056     12066.72   -1767.0447   -266.79075    2679.3257 
  133000    275.61441   -126.92221   -96.177011   -126.92221            0    10775.168    16.850837     19.84806    20.557982     6875.749    11195.664    12881.009    8248.8325   -2783.4621    1453.4084    5210.8557 
  133500     260.1411   -125.46746   -96.448331   -125.46746            0    10022.253    16.891047    19.895422    20.607038    6925.0881    9836.1781     6755.632    13474.949    2176.4407    2564.0104    4094.7861 
  134000    263.51736   -128.75695   -99.361195   -128.75695            0    12594.041     16.81989    19.811608    20.520227    6837.9362    12561.656    14163.783    11056.684   -1415.7411   -589.18672    1444.2113 
  134500    252.96209   -126.22702   -98.008715   -126.22702            0    7857.7041     16.87211    19.873116    20.583934    6901.8215    5723.8188    11239.909    6609.3849    1452.7842    1707.1198    -2527.481 
  135000    251.23257   -126.24944   -98.224072   -126.24944            0    8657.3442    16.912861    19.921115    20.633651    6951.9526    5747.0798    11142.056    9082.8968    1243.4904    1092.3462    564.97266 
  135500    261.84295   -125.96491   -96.755934   -125.96491            0     8523.627    16.846244    19.842649    20.552378    6870.1279    8677.6125    8814.4208    8078.8477    678.73292   -962.87973    -959.9955 
  136000       262.24   -124.75516   -95.501892   -124.75516            0    6317.3614    16.864987    19.864727    20.575245    6893.0849    5587.1453    5304.4442    8060.4948    470.45897    1435.2918   -1163.2519 
  136500    267.09963   -125.86517   -96.069804   -125.86517            0    9999.7063     16.79349    19.780512    20.488018    6805.7884    6010.5278    13329.132    10659.459   -3260.2917   -183.76031    220.15405 
  137000    263.44778   -126.13374   -96.745739   -126.13374            0    10280.601    16.813091      19.8036    20.511931     6829.647    8574.3793    5578.3341     16689.09     387.5112   -388.19323    3185.2772 
  137500    282.60945   -127.04362   -95.518109   -127.04362            0    8654.5496    16.847503    19.844132    20.553913    6871.6678    5514.4064    11380.552    9068.6906    1551.3443    1313.6651    1731.9199 
  138000    253.70793   -124.61275   -96.311245   -124.61275            0    8235.0251    16.867616    19.867823    20.578452    6896.3083    7998.9521    8657.5362     8048.587    -652.2976    2191.8007    885.30288 
  138500     259.0027   -125.11831   -96.226165   -125.11831            0    8622.1759    16.819325    19.810942    20.519537    6837.2465    10038.214    7235.6768    8592.6369    1815.1902    532.25783    464.39897 
  139000    260.19125   -127.61556   -98.590838   -127.61556            0    6253.9887    16.847476    19.844101    20.553881    6871.6358    5875.3916    9268.3307    3618.2439   -1843.4879     1249.994   -885.99523 
  139500    263.57416   -127.32198   -97.919889   -127.32198            0    11041.928    16.828872    19.822187    20.531184    6848.8958     15886.88    10917.285    6321.6181   -4140.2192    345.74966   -12.936678 
  140000     260.7727   -125.88441   -96.794822   -125.88441            0    7855.4775    16.906103    19.913156    20.625406    6943.6227    6308.5645    9849.2374    7408.6304   -138.07338    83.609856    639.21822 
  140500    262.87908   -125.11092   -95.786364   -125.11092            0    9505.1045    16.874411    19.875827    20.586742    6904.6465    8095.9449    11162.286    9257.0821    2610.3179   -2711.2611   -5254.3181 
  141000    265.54081   -125.98473   -96.363252   -125.98473            0    5806.4727    16.851734    19.849116    20.559075    6876.8464    6585.5149    3532.8823     7301.021     3092.309   -388.17706   -1605.1779 
  141500    267.34983   -127.35571   -97.532431   -127.35571            0    8443.4582    16.845896     19.84224    20.551954    6869.7026    7681.0243    5432.3821    12216.968    1024.9643   -174.49271    -1278.945 
  142000    262.02952   -126.13146   -96.901669   -126.13146            0    9923.2273    16.811153    19.801317    20.509567    6827.2853    10929.769    10087.139    8752.7735    640.03786    197.97073   -2934.1851 
  142500    270.58401   -125.81842   -95.634364   -125.81842            0    7438.5593    16.835567    19.830073    20.539352    6857.0733    10463.053    5664.2661    6188.3585   -2623.2593    1063.3818    3639.9333 
  143000    272.22898   -125.84615   -95.478602   -125.84615            0    11549.302    16.859777     19.85859    20.568889    6886.6985    13710.859    12617.343    8319.7041    1115.9624      1110.07   -1830.0368 
  143500     265.5363   -125.76349   -96.142512   -125.76349            0    5772.9617    16.837159    19.831948    20.541294    6859.0187    7675.4759    1855.9372    7787.4721   -2689.5069   -817.49295    429.79676 
  144000    273.62891   -127.03359   -96.509872   -127.03359            0    6963.6609    16.826739    19.819675    20.528582    6846.2926    6655.6508    6104.1284    8131.2035   -484.23911   -1280.7934    -2172.152 
  144500     256.5465   -125.92766   -97.309512   -125.92766            0    7969.5908    16.907798    19.915151    20.627473    6945.7104    11250.598    4585.2189    8072.9557     1608.236   -4897.9026   -2030.7718 
  145000    269.37624   -125.55196   -95.502636   -125.55196            0    7105.5791    16.878299    19.880406    20.591485    6909.4203    7815.7352    5795.7523    7705.2499    305.27237    3260.8778    3649.4691 
  145500    276.25957   -126.20817   -95.390997   -126.20817            0     9035.554    16.884655    19.887893     20.59924    6917.2292    12094.648     9624.912    5387.1024    159.35068    2103.0592    923.59858 
  146000     261.7581   -126.21696   -97.017455   -126.21696            0    8422.2031    16.875545    19.877162    20.588124    6906.0378    8591.2663     10777.75    5897.5932   -610.40648   -558.69747    450.73577 
  146500    265.14747   -127.25712   -97.679521   -127.25712            0    8726.4266     16.83534    19.829805    20.539074    6856.7956    10168.689    7797.7587    8212.8324   -208.22108   -3563.4158    1749.9914 
  147000    266.13516   -127.37287   -97.685088   -127.37287            0    9940.8713    16.817881    19.809242    20.517776    6835.4863    9262.3684    11196.665    9363.5805   -4237.8165   -1795.9927   -2434.3893 
  147500    257.05978    -126.9948    -98.31939    -126.9948            0    7138.1515    16.928519    19.939559    20.652753     6971.279    6410.2012    8254.4446    6749.8087    974.97655   -907.56265   -2876.2052 
  148000      261.952   -127.70018   -98.479037   -127.70018            0    9895.2237     16.87813    19.880207    20.591279    6909.2124    9424.6567     8643.901    11617.113   -1348.2036    2334.4687   -278.92654 
  148500    267.20139   -127.99692   -98.190205   -127.99692            0    11301.805    16.872406    19.873465    20.584296    6902.1858    12945.254    8019.5526    12940.607    646.95537   -403.57705    1035.8964 
  149000    267.22131   -126.08784   -96.278898   -126.08784            0    9428.3029    16.878272    19.880375    20.591452    6909.3873    10824.587    5926.5644    11533.757    1859.7424    2732.4132   -2085.4583 
  149500    265.78237    -125.5667   -95.918272    -125.5667            0    8698.4812    16.904537    19.911311    20.623495    6941.6931    10240.102    6254.9452    9600.3968   -232.73371    3271.4497    4589.8872 
  150000    262.84453   -127.30923   -97.988528   -127.30923            0    7622.7692    16.896923    19.902343    20.614206    6932.3176    8312.7865    10464.612    4090.9088   -2459.4109   -3012.8361   -838.25512 
  150500    268.52156   -128.31571   -98.361722   -128.31571            0    12717.641    16.831328     19.82508     20.53418    6851.8951    13423.009    12125.114    12604.801    1701.2778    1393.1194    1113.5233 
  151000    270.90472   -126.84534   -96.625509   -126.84534            0    10541.422    16.861819    19.860994    20.571379    6889.2003      9836.92    8748.0361    13039.311    -502.4852    2522.8682   -157.89234 
  151500    266.63428   -127.49267    -97.74921   -127.49267            0    10394.183    16.887318    19.891029    20.602488    6920.5017      9798.12    10591.634    10792.795   -632.10987    -1455.862   -3487.8464 
  152000    260.87725   -126.81132   -97.710072   -126.81132            0    7835.6658    16.888024    19.891861     20.60335    6921.3704    8719.4851    8482.9626    6304.5497    721.02829   -1615.8129    2219.9456 
  152500    260.58001   -127.97903   -98.910939   -127.97903            0    11912.206    16.818856     19.81039    20.518965    6836.6752    12746.007    12211.135    10779.475   -2149.4372    3676.1273   -2490.6061 
  153000     266.7502   -127.88616   -98.129773   -127.88616            0    10061.146    16.932061    19.943731    20.657075    6975.6559    8898.8763    13591.795    7692.7661    1450.4371   -3238.2396    760.95585 
  153500    261.71335   -127.68622     -98.4917   -127.68622            0    13714.424    16.868743     19.86915    20.579827    6897.6911    13688.083    12278.215    15176.976    -1238.105   -932.39892   -3041.5089 
  154000    254.46425   -127.12248   -98.736607   -127.12248            0     9950.775     16.90144    19.907662    20.619716    6937.8779    11014.494    8020.7852    10817.046    2404.6019   -1781.2306     -2409.79 
  154500    262.19843   -127.45451   -98.205883   -127.45451            0    8481.2075    16.901946    19.908259    20.620334    6938.5019    9631.6368    7846.4277     7965.558   -2850.4546   -679.48153    2827.8085 
  155000    267.33005   -128.68502   -98.863951   -128.68502            0    7638.6151    16.838822    19.833908    20.543323    6861.0518    7045.9088    5893.6739    9976.2626    -494.3546    593.20933   -410.52893 
  155500    265.96954   -128.14303   -98.473729   -128.14303            0    11690.694    16.918957    19.928296    20.641088    6959.4725    10300.549    12689.102    12082.429   -2016.3393   -1351.9434   -596.81845 
  156000    254.38436   -127.35494   -98.977978   -127.35494            0    8603.5025    16.853512     19.85121    20.561244    6879.0233    8004.0842    8167.1209    9639.3024    1274.4593   -3930.8538   -215.99212 
  156500    252.16052   -127.35368   -99.224791   -127.35368            0    10873.883    16.847861    19.844554    20.554351    6872.1067    12651.644    10210.904    9759.1029    2059.2336   -2403.9783    1063.0977 
  157000    257.55986   -128.28656    -99.55537   -128.28656            0    11666.659    16.883269     19.88626    20.597549    6915.5258    12682.291    10583.732    11733.955   -2350.4867    916.52523   -898.06681 
  157500    253.22805   -128.61955   -100.37158   -128.61955            0    12590.878    16.795957    19.783418    20.491028    6808.7878    11503.526     13537.02    12732.087    2936.4284   -1070.4712   -1936.0484 
  158000    263.06979   -128.42014   -99.074313   -128.42014            0    7452.3439    16.893373    19.898161    20.609875    6927.9486    6866.0807    8284.8539    7206.0972   -1559.3012    1137.5707   -2207.4032 
  158500    267.12573   -128.14352   -98.345243   -128.14352            0      9720.87    16.839888    19.835163    20.544623    6862.3545    7666.2105    10231.597    11264.803   -2283.1199   -2176.3549    2620.2378 
  159000    259.82628   -128.30641   -99.322402   -128.30641            0    9674.9888    16.868074    19.868362    20.579011    6896.8705    12490.857    7181.1198    9352.9897   -106.18247    150.66148     1322.704 
  159500    263.02958   -126.30294   -96.961599   -126.30294            0    9310.5666    16.860337    19.859248    20.569571    6887.3837    11058.628    6485.9734    10387.098    170.38154    354.61151   -2097.7685 
  160000    260.94765   -126.78839   -97.679291   -126.78839            0     9050.482    16.802211    19.790784    20.498658    6816.3969    7868.0726     10770.47     8512.904   -732.73663    300.42888   -815.85299 
  160500    263.58546   -127.76036   -98.357003   -127.76036            0    8479.0978    16.856905    19.855207    20.565384    6883.1792    8145.0325    7370.9954    9921.2655    661.09337   -2276.6278   -244.96154 
  161000    259.56586   -127.05329   -98.098328   -127.05329            0    8468.4152    16.910722    19.918596    20.631041    6949.3155    12262.968    6064.5185    7077.7588   -1819.2629    3176.6316    1622.6784 
  161500    257.22431   -126.65685   -97.963088   -126.65685            0    10252.022    16.856189    19.854363     20.56451    6882.3019    12876.962    7438.1434    10440.959   -1483.9963    542.35143   -2248.9529 
  162000    259.03045   -126.73611   -97.840869   -126.73611            0    8504.7132     16.88018    19.882621    20.593779    6911.7297    7337.7876    7676.4461    10499.906   -1964.8639    463.72503   -37.796717 
  162500    251.58321   -126.46113   -98.396646   -126.46113            0    7919.7218    16.889068    19.893091    20.604624    6922.6543    5868.7263    7715.7386    10174.701   -1315.8037   -1900.9735    442.27312 
  163000    267.95222    -127.7872   -97.896722    -127.7872            0    7954.4732    16.947814    19.962286    20.676293    6995.1439    4534.3001     8612.016    10717.104     1334.813    1706.1329    1415.2172 
  163500      263.363   -126.80597   -97.427434   -126.80597            0    11696.368    16.861848    19.861029    20.571415    6889.2364     10472.22    12954.664    11662.221    1556.3686    1033.4159   -763.31307 
  164000    269.87022   -127.28307   -97.178644   -127.28307            0     6212.456    16.883087    19.886045    20.597326    6915.3012    5495.3286     4526.664    8615.3754     651.0075     1226.543     1915.878 
  164500    270.00493   -128.44919    -98.32973   -128.44919            0    4725.0288    17.043173    20.074606    20.792631    7113.8861    6420.0024    4779.5501    2975.5341   -2896.3114   -1988.4837    645.48032 
  165000    261.98167    -125.8122   -96.587754    -125.8122            0     11067.81    16.876693    19.878515    20.589526    6907.4482     13108.59    9495.7765    10599.062    1570.8282   -1017.9042    1945.2156 
  165500    274.83717   -128.85922   -98.200722   -128.85922            0    6563.0598    16.934857    19.947023    20.660485    6979.1116    7879.7011    5059.5652     6749.913     1228.124   -1535.6741   -1256.7749 
  166000    269.12971    -125.5842   -95.562378    -125.5842            0    8861.7903    16.913365    19.921709    20.634265    6952.5738    7817.4334    11085.665    7682.2729    85.889162   -3404.1971    1601.0973 
  166500    260.45801   -126.59852   -97.544037   -126.59852            0    8474.0451    16.902788     19.90925    20.621361    6939.5382    5227.6135    12023.359    8171.1629   -2417.9214   -1168.3446    947.65304 
  167000    253.42804   -127.06411    -98.79383   -127.06411            0    8827.7846    16.905972    19.913001    20.625246     6943.461    7915.1048     13201.63    5366.6195   -38.664684    201.70417   -209.48302 
  167500    261.74208    -127.7568    -98.55908    -127.7568            0    10169.201    16.859407    19.858154    20.568437     6886.245    11086.943    7952.7241    11467.937    681.12541    1827.8788    286.85489 
  168000    257.25203   -125.84284   -97.145987   -125.84284            0     6543.349    16.902769    19.909228    20.621338    6939.5146    5803.5094    8612.4237    5214.1138    719.53319   -1414.0885   -104.73173 
  168500    260.32286   -126.92265   -97.883242   -126.92265            0    6808.5866    16.939646    19.952665    20.666328    6985.0346    3922.3963    5370.7127    11132.651   -829.90444    695.07296   -204.90816 
  169000    282.06477   -126.92123   -95.456485   -126.92123            0    10196.199     16.90159     19.90784      20.6199    6938.0633    9025.0298    10767.319    10796.249    1417.2161    368.43049     608.5096 
  169500    267.14134   -128.09246   -98.292439   -128.09246            0    9819.2111    16.907604    19.914923    20.627236    6945.4715    10145.046    10191.165    9121.4225    -1072.031    1340.6083    36.253754 
  170000    275.95079    -127.0267   -96.243975    -127.0267            0    8717.8264    16.983559    20.004388    20.719902    7039.4979    9272.9817    9144.5828    7735.9147   -4408.6619   -1279.6175    1257.9543 
  170500    262.72534   -128.72205    -99.41464   -128.72205            0     10094.34    16.887229    19.890924    20.602379    6920.3926    13183.428    9424.3971    7675.1936    1485.1092    1086.1935      2169.13 
  171000    262.68232   -128.99281   -99.690197   -128.99281            0    6761.8899    16.951636    19.966787    20.680955    6999.8767    5792.9709    4056.8143    10435.884   -139.61269   -2102.4349    583.06674 
  171500    268.36111   -129.13708   -99.200989   -129.13708            0    8515.0578    16.952142    19.967383    20.681573    7000.5037    9551.7268    10968.436    5025.0108   -1122.3933   -1732.7399    2811.6339 
  172000    273.10201   -128.85991   -98.394972   -128.85991            0    8661.5298    16.926099    19.936708    20.649801    6968.2901    9531.5823    9146.7246    7306.2825    1.2988602   -782.38231   -667.77601 
  172500    273.14851    -126.9353   -96.465171    -126.9353            0    8133.0034    16.956158    19.972114    20.686473    7005.4808    10117.909    6228.3119    8052.7895    189.11807   -2659.3204    3863.9001 
  173000    265.05597   -126.71469   -97.147301   -126.71469            0    11845.882     16.83901    19.834129    20.543553    6861.2815    13043.205    11518.592    10975.849   -202.56406    1526.8861    839.15171 
[...]
  958500     252.4582   -127.00742   -98.845327   -127.00742            0    10598.055    16.896271    19.901575    20.613411    6931.5149    5268.7777    14805.711    11719.677   -691.80503    1468.9153   -769.98605 
  959000    264.73198   -127.25532   -97.724072   -127.25532            0    11067.102    16.866067    19.865998    20.576561    6894.4081    8227.4976    13015.649    11958.158    2505.3861    841.93538    3193.4217 
  959500    273.30516   -127.16682   -96.679221   -127.16682            0    8364.5943    16.937263    19.949858    20.663421    6982.0871    8628.4212    8735.5876    7729.7742   -3118.1567   -1527.0375    96.045109 
  960000    253.98018    -126.5526   -98.220728    -126.5526            0    6751.3076    16.873089    19.874269    20.585129    6903.0234    7347.5257    4755.4008    8150.9964   -2463.3231   -8.2514859   -292.90554 
  960500    244.12511   -125.48316   -98.250638   -125.48316            0    7522.3712    16.887451    19.891185     20.60265     6920.665    5223.4925    9986.4292    7357.1919    264.20324   -875.90045   -886.10423 
  961000    271.40995   -127.31164   -97.035456   -127.31164            0    9268.4942    16.877715    19.879718    20.590773     6908.703    12760.304    5881.9224    9163.2566    416.97219   -1080.7616   -2362.6701 
  961500    266.85033   -126.98651   -97.218951   -126.98651            0    3996.3532    16.878144    19.880223    20.591296    6909.2297    3857.0475    5522.1506    2609.8615    171.73327   -351.61171    2011.4354 
  962000      270.841   -126.20676    -95.99404   -126.20676            0    8404.2226    16.857237    19.855597    20.565789    6883.5855    9584.4268    9717.7717    5910.4691   -4245.6251    162.24013    103.09428 
  962500    266.85058    -125.4181    -95.65052    -125.4181            0    13988.905     16.85671    19.854977    20.565147    6882.9408    13621.119    14947.583    13398.015   -2338.0242    709.79596   -153.58655 
  963000    253.90128   -125.24186   -96.918787   -125.24186            0    7453.0348    16.945438    19.959487    20.673394    6992.2019    8403.8668    8115.6788    5839.5587   -1516.1596    341.30597   -4332.7533 
  963500    264.23104   -124.97533   -95.499961   -124.97533            0    13911.401    16.850322    19.847453    20.557353    6875.1187    14646.582     14609.52    12478.102   -450.72533   -2834.6603    589.10346 
  964000    262.62645   -126.67723   -97.380859   -126.67723            0    3435.2555    16.985306    20.006447    20.722034    7041.6709    1167.6351    1657.5051    7480.6264    1113.3151   -392.31153    522.86491 
  964500    276.76541   -125.73517   -94.861571   -125.73517            0    12394.662    16.812214    19.802567    20.510862    6828.5786    11286.152    15690.342    10207.492    3041.7087   -1325.4949   -1484.9336 
  965000    263.76672   -125.69813   -96.274557   -125.69813            0    10779.395    16.934489     19.94659    20.660036    6978.6564    11068.408    10541.455    10728.322     1687.749    62.011174    990.41261 
  965500    270.64796   -125.85523   -95.664038   -125.85523            0     7493.058    16.929799    19.941066    20.654314    6972.8598    11519.473     4864.168    6095.5326   -139.23027      2966.22   -277.34789 
  966000    274.37839   -125.38639   -94.779069   -125.38639            0    9729.7603     16.90443    19.911184    20.623364    6941.5608    9557.7763    11712.449    7919.0552     3211.743   -1464.4558    -3051.329 
  966500    276.03165   -125.24716   -94.455414   -125.24716            0     9496.489    16.941052     19.95432    20.668043    6986.7735    8664.5062    8174.4732    11650.488   -3134.2003   -404.59015    2667.7918 
  967000    264.60612    -125.1772   -95.659989    -125.1772            0    7320.3932    16.914631      19.9232     20.63581    6954.1354    11115.972    5231.9292    5613.2789   -2198.9423   -1097.2122   -2444.6592 
  967500    249.33901   -125.40811   -97.593964   -125.40811            0     12692.47    16.837587    19.832453    20.541816    6859.5421    16149.071    7325.6207    14602.717    500.16507   -2495.9623    752.31279 
  968000    258.42522   -125.23608   -96.408357   -125.23608            0    7279.0473    16.878338    19.880452    20.591533    6909.4683    9471.0343    5438.1304    6927.9773   -1027.5919    2152.0415    926.46538 
  968500    256.39439   -127.09619   -98.495011   -127.09619            0    8786.1644    16.883281    19.886274    20.597563    6915.5405    11773.792    6128.6469    8456.0548   -13.676664   -2735.4869   -984.60944 
  969000    273.60648   -125.95707   -95.435851   -125.95707            0    7894.1441    16.891037    19.895409    20.607025    6925.0752    7321.1197    9422.3092    6939.0036    2584.1824    1110.7539    864.29038 
  969500    262.99215   -125.32611   -95.988941   -125.32611            0    10341.966    16.861455    19.860566    20.570935    6888.7541    10619.948     10576.43    9829.5197   -5757.8888   -1293.3545    223.67944 
  970000    269.62414   -124.37787    -94.30089   -124.37787            0    9547.5207    16.888202    19.892071    20.603567    6921.5895    7571.4039    12888.358    8182.7998    123.39319    3015.1856   -547.37608 
  970500    273.24829   -127.00036   -96.519098   -127.00036            0    3365.5737    16.909418     19.91706     20.62945    6947.7073     6008.395    2574.5946    1513.7315    1738.9741    4215.3058    2392.9502 
  971000    261.07871   -127.57542   -98.451697   -127.57542            0    16553.121    16.797513    19.785251    20.492926    6810.6807    17038.966    16636.945    15983.451   -2247.2052    3107.1694    1008.8591 
  971500    256.37173   -126.64104    -98.04239   -126.64104            0    7609.3995    16.906097    19.913148    20.625398    6943.6148    8434.2296    8008.8637    6385.1052   -25.364533     1166.564    1898.9792 
  972000    274.90176   -125.85086    -95.18516   -125.85086            0     9636.882    16.857186    19.855538    20.565727    6883.5238    7088.9186    9121.7608    12699.967   -3273.2935   -766.97041   -2206.7984 
  972500    261.47583   -126.00381    -96.83579   -126.00381            0    11494.313    16.846414     19.84285    20.552585    6870.3361     9671.946    9478.5503    15332.442   -1915.1525    864.94228   -614.04711 
  973000    263.93136   -126.15137   -96.709426   -126.15137            0    4203.8761    16.898948    19.904728    20.616677      6934.81    3506.4089    6384.1719    2721.0476    2917.1291   -2416.9165    2851.0903 
  973500    264.30033   -124.57962   -95.096523   -124.57962            0    11586.824    16.921322    19.931081    20.643973    6962.3911    11759.584    9458.1534    13542.733    689.42517    3987.4912   -3523.4629 
  974000    272.37885   -127.29963   -96.915362   -127.29963            0    8759.8116    16.919338    19.928744    20.641552    6959.9424    10289.753    8189.6865    7799.9952    968.28974    -265.1062    2149.8665 
  974500    260.38793   -126.02128   -96.974619   -126.02128            0    10719.082    16.856298    19.854491    20.564643    6882.4353    10072.535    10267.993     11816.72   -1310.8506    1734.3676   -1023.2409 
  975000    267.77606    -126.1601   -96.289279    -126.1601            0    9921.6099     16.86862    19.869005    20.579676    6897.5397    12456.168    7721.0493    9587.6124   -1365.9074   -538.75182     372.3413 
  975500    253.51613   -126.52802   -98.247916   -126.52802            0    8102.9026     16.95025    19.965154    20.679264    6998.1598    9330.3939    8691.5092    6286.8048    1440.4881    2028.5289   -450.80072 
  976000    263.49624    -125.7687   -96.375297    -125.7687            0    14750.737    16.793304    19.780293    20.487792    6805.5626    16004.254    16348.314    11899.643    1008.1605   -3118.2822    699.84829 
  976500    256.99582   -125.86191   -97.193644   -125.86191            0    6497.6711    16.933464    19.945383    20.658786    6977.3893    4247.9507    9322.4904    5922.5723    2900.4073    2438.5128   -2305.9903 
  977000    274.97466    -125.5701   -94.896265    -125.5701            0    7687.0451    16.883167     19.88614    20.597424    6915.3998    7814.4436    7099.1168    8147.5749   -1201.3651    563.62018    1158.1759 
  977500    270.90697   -126.99938   -96.779298   -126.99938            0    8890.2381     16.89227    19.896862     20.60853    6926.5922    9380.0902    9584.8102    7705.8139    1792.0275   -971.74239   -1116.5558 
  978000    272.65813   -125.19403   -94.778605   -125.19403            0    8890.4401    16.892204    19.896784    20.608449    6926.5108    10476.485    6211.4209    9983.4143    2303.4638    2732.0949    732.78685 
  978500    263.82669   -125.54897    -96.11871   -125.54897            0    10729.508    16.888641    19.892588    20.604103    6922.1293    11775.158    9308.5252    11104.841    1584.6835    374.62721   -3203.2403 
  979000    261.31839   -125.80246   -96.651996   -125.80246            0     10236.04    16.895982    19.901234    20.613058    6931.1592    9212.5914    10757.899     10737.63    -55.76109    2711.6224    2969.7476 
  979500    271.63735   -127.07264   -96.771086   -127.07264            0    10994.015    16.831596    19.825396    20.534508     6852.223    11023.767    12455.741    9502.5373    53.760044   -1189.2215   -271.27661 
  980000    266.36597   -125.61261   -95.899083   -125.61261            0     11358.07    16.887407    19.891134    20.602596    6920.6113    9131.4604    15093.314    9849.4353    1140.1491   -263.95149    1004.2805 
  980500    266.71668   -127.93143   -98.178781   -127.93143            0    12603.697    16.955335    19.971145    20.685469    7004.4609     14207.59    12811.062     10792.44    2960.9297    2134.1388    1048.8447 
  981000      269.433   -126.63235   -96.576696   -126.63235            0     8631.738    16.892772    19.897453    20.609142    6927.2094     8517.455    12251.596    5126.1624    1072.2633    3265.5601    1107.4079 
  981500    260.03593   -127.12171   -98.114309   -127.12171            0    10077.837    16.918243    19.927454    20.640216    6958.5909    7928.9655    14004.492     8300.054    1125.3118   -1491.2821    -1066.655 
  982000    270.84314   -124.31468   -94.101718   -124.31468            0    9396.4102    16.890932    19.895286    20.606897    6924.9461    8454.6855     11441.34    8293.2049    1453.4062   -1529.6652    394.78932 
  982500    271.23043   -123.94086   -93.684693   -123.94086            0    9080.1959    16.856984    19.855299     20.56548    6883.2756    7816.9005     9902.685    9521.0022   -618.25904   -436.05296    1343.8598 
  983000    269.81693   -125.28203    -95.18355   -125.28203            0    9005.9724    16.949332    19.964074    20.678145    6997.0237    8410.4792    6374.0049    12233.433    2.3752032   -761.66694     2103.808 
  983500    243.12921   -125.27941   -98.157981   -125.27941            0    10157.556    16.887456    19.891192    20.602657     6920.672    12892.823     7664.108    9915.7368    1468.6495   -487.71109    999.03186 
  984000     275.6429   -128.06667   -97.318289   -128.06667            0    7101.1134    16.878624    19.880788    20.591881    6909.8186    7891.1908    9091.4225    4320.7268   -232.58166   -3207.4971    688.73127 
  984500    258.60035   -127.21346   -98.366201   -127.21346            0    5742.9522    16.863773    19.863297    20.573764    6891.5962    5394.6704    7968.9968    3865.1893    1388.2508    37.075299   -1376.9134 
  985000    251.07643   -125.98338   -97.975428   -125.98338            0    7964.6493    16.930045    19.941355    20.654614    6973.1639    6933.8247    10524.471    6435.6524    733.12982    4496.7367    6.6075217 
  985500    261.09942   -127.55491   -98.428878   -127.55491            0     6721.075    16.893815    19.898681    20.610414    6928.4923     8191.539    5140.2753    6831.4106   -127.14627     -144.532   -1218.4903 
  986000    259.43674   -124.23498   -95.294418   -124.23498            0    7787.0131    16.888148    19.892007    20.603501     6921.523    8507.7552    8432.2004    6421.0836    2316.9096    75.120826    816.43747 
  986500     272.1262   -126.54749   -96.191403   -126.54749            0     9618.937    16.960417     19.97713    20.691669     7010.761    8825.1007    12311.127    7720.5833   -901.80571   -296.77169    1785.3408 
  987000    260.44596    -126.9923   -97.939157    -126.9923            0    8872.1719    16.903879    19.910535    20.622692    6940.8821    6644.0551    12031.047    7941.4134     155.4545    -1645.017   -274.84421 
  987500    258.66289   -125.90058    -97.04634   -125.90058            0     11272.74    16.929936    19.941228    20.654482    6973.0297     10383.39    11367.866    12066.963    940.82228    175.89166    391.24489 
  988000    259.59665   -125.61426   -96.655868   -125.61426            0    11003.937    16.932987    19.944822    20.658205    6976.8006    13026.843    10656.029    9328.9385   -583.55075    3614.7865    4279.4278 
  988500    260.89294   -124.78707   -95.684067   -124.78707            0    8469.0993     16.88258    19.885449    20.596708    6914.6793    10444.683    2588.0147    12374.601    144.71929   -2975.4845    932.49408 
  989000    276.60528    -125.7458   -94.890068    -125.7458            0    8482.8083     16.88646    19.890019    20.601442    6919.4476    5046.0826    6540.6204    13861.722   -2644.9412   -2445.0568   -867.51514 
  989500    266.30403   -125.83972   -96.133102   -125.83972            0    8977.3258    16.959483    19.976029    20.690529    7009.6018    8427.3836    10569.968     7934.626   -449.91592    752.66377    2677.3305 
  990000    270.32187   -124.57515   -94.420334   -124.57515            0    11793.945    16.941584    19.954947    20.668692    6987.4315    14712.483     12120.91    8548.4422    1924.1282    74.108549   -3025.4525 
  990500    258.51419   -125.85062   -97.012972   -125.85062            0    12848.492    16.912922    19.921187    20.633725    6952.0277    13464.548    12777.294    12303.634   -1992.8425   -509.86747    1854.9446 
  991000     261.7407   -126.41734   -97.219774   -126.41734            0    8933.0953    16.977014    19.996679    20.711917    7031.3621    10201.043    10434.991    6163.2516    115.55613   -1718.0502    419.92965 
  991500    264.75492   -124.84038   -95.306565   -124.84038            0    8425.8091    16.957642    19.973861    20.688283    7007.3198    8809.5921    9844.1589    6623.6763   -2462.5509    1431.1009   -1927.8061 
  992000    261.25806   -125.17348   -96.029754   -125.17348            0    7337.1902    16.890034    19.894228    20.605802    6923.8418    5855.2325    6109.5828    10046.755    743.39619   -4001.0105   -610.67437 
  992500    264.98488   -126.22669   -96.667228   -126.22669            0      9419.37    16.959365    19.975891    20.690385    7009.4564    7952.4651    9363.7343    10941.911   -2777.3971    482.14374   -734.38158 
  993000    256.18114    -126.5863   -98.008905    -126.5863            0    8797.0967    16.929661    19.940904    20.654147    6972.6899    7926.0675    7420.2747    11044.948    -658.4796    2549.7551    1317.2275 
  993500    264.65497   -124.82195   -95.299292   -124.82195            0    8317.1732    16.924191    19.934461    20.647473    6965.9333    9000.4035    6737.3806    9213.7355    1335.2437   -1371.4427   -3017.9762 
  994000     269.8739   -126.78148   -96.676642   -126.78148            0    10466.716    16.963783    19.981095    20.695776     7014.936    7315.1109    9854.9223    14230.116   -1576.6396    275.29895     1546.207 
  994500    268.55875   -125.73924   -95.781108   -125.73924            0    11188.954    16.910433    19.918255    20.630688    6948.9584    12995.594    9328.3629    11242.906   -795.15537    1563.6246    1431.2694 
  995000    251.46368   -126.20828   -98.157127   -126.20828            0    8364.3164    16.986919    20.008345    20.724001    7043.6761    9851.8232    5388.3051    9852.8209     422.3654   -1115.3194    9.2671894 
  995500    286.23831   -126.14376   -94.213442   -126.14376            0    8692.9812    16.869419    19.869946    20.580651    6898.5196    7555.8075    11276.515    7246.6207    57.512651   -397.24615    2572.5675 
  996000    259.50572   -125.35066   -96.402402   -125.35066            0    6677.2618    16.967574     19.98556      20.7004    7019.6394     4695.906    9322.5802    6013.2991   -775.60377    -904.6401   -1357.8038 
  996500    268.14938   -125.54187   -95.629398   -125.54187            0    9161.4643    16.861491    19.860609     20.57098    6888.7989    11324.297    8421.7865    7738.3094   -2611.8284   -940.55069   -71.593964 
  997000    247.80714   -125.74271   -98.099449   -125.74271            0     9653.677    16.888554    19.892485    20.603996    6922.0221    6399.4116    9008.4114    13553.208   -2848.3953   -41.810212    1351.5903 
  997500    270.20236   -126.59662   -96.455142   -126.59662            0    8377.0465    16.908615    19.916114     20.62847    6946.7178    12988.926    4844.1728    7298.0402   -1641.1653   -781.45898    1722.8579 
  998000    256.10199   -125.91784   -97.349281   -125.91784            0    11548.593    16.910513    19.918349    20.630786    6949.0572    11960.195     10635.62    12049.964   -2615.5813    3296.0136   -1564.9726 
  998500    264.30094   -126.74752   -97.264352   -126.74752            0    6971.5905    16.893535    19.898352    20.610072    6928.1478    7721.8859    7856.9603    5335.9253    603.51366   -314.39312    2599.8549 
  999000    260.23035   -125.97007   -96.940986   -125.97007            0    8017.6343    16.858233    19.856771    20.567005    6884.8064    8578.8685    5526.8054    9947.2289   -1405.2815   -770.28282   -1968.4101 
  999500    266.56846   -126.25545   -96.519336   -126.25545            0    9504.9734    16.948048    19.962561    20.676579    6995.4336    9452.7849     9665.518    9396.6172   -74.451103    1033.1932   -2902.3163 
 1000000    268.55863   -128.66365   -98.705531   -128.66365            0    8827.6063    16.922605    19.932592    20.645538    6963.9746    6116.9069    7928.7806    12437.131    471.92479    42.521328    2650.9673 
Loop time of 5713.67 on 1 procs for 1000000 steps with 864 atoms

Performance: 7.561 ns/day, 3.174 hours/ns, 175.019 timesteps/s
72.9% CPU use with 1 MPI tasks x 1 OpenMP threads

MPI task timing breakdown:
Section |  min time  |  avg time  |  max time  |%varavg| %total
---------------------------------------------------------------
Pair    | 5020.7     | 5020.7     | 5020.7     |   0.0 | 87.87
Bond    | 0.16184    | 0.16184    | 0.16184    |   0.0 |  0.00
Neigh   | 630.29     | 630.29     | 630.29     |   0.0 | 11.03
Comm    | 24.099     | 24.099     | 24.099     |   0.0 |  0.42
Output  | 4.7795     | 4.7795     | 4.7795     |   0.0 |  0.08
Modify  | 30.262     | 30.262     | 30.262     |   0.0 |  0.53
Other   |            | 3.366      |            |       |  0.06

Nlocal:        864.000 ave         864 max         864 min
Histogram: 1 0 0 0 0 0 0 0 0 0
Nghost:        4526.00 ave        4526 max        4526 min
Histogram: 1 0 0 0 0 0 0 0 0 0
Neighs:         0.00000 ave           0 max           0 min
Histogram: 1 0 0 0 0 0 0 0 0 0
FullNghs:      228298.0 ave      228298 max      228298 min
Histogram: 1 0 0 0 0 0 0 0 0 0

Total # of neighbors = 228298
Ave neighs/atom = 264.23380
Ave special neighs/atom = 0.0000000
Neighbor list builds = 100000
Dangerous builds not checked

unfix		3
unfix		2

write_data	data.final.${pid}
write_data	data.final.0
System init for write_data ...

write_restart   restart.lmp.${pid}
write_restart   restart.lmp.0
System init for write_restart ...
Total wall time: 1:35:18
