LAMMPS data file via write_data, version 23 Jun 2022, timestep = 39239500

2268 atoms
2 atom types

1.0516267249592808 46.39907227501798 xlo xhi
0 20.047001 ylo yhi
0 20.857 zlo zhi

Masses

1 1.008
2 15.999

Atoms # full

539 0 2 0.5897 5.317301159293126 1.994856018612457 1.374306354031215 0 1 2
2258 0 2 0.5897 3.0847187755960888 3.4620397712626283 3.4869819611225488 1 0 -1
538 0 1 -1.1794 6.064169490280366 2.5608503643309453 1.5112253276290728 0 1 2
644 0 2 0.5897 4.54761780038469 19.89971893765713 2.180620375279327 0 2 1
643 0 1 -1.1794 4.488942330183622 0.05629528748680141 1.2185215606941895 0 3 1
9 0 2 0.5897 3.1029545669325005 0.8239278436590762 0.5079783811723206 0 -1 -1
540 0 2 0.5897 6.852198269432095 2.117355844710719 1.1994269707587297 0 1 2
645 0 2 0.5897 5.286693356975116 19.7091123219352 0.8122679895489768 0 2 1
1827 0 2 0.5897 2.0638693703275806 0.14309396946075553 3.6506924878243407 0 1 3
2257 0 1 -1.1794 3.3225781149367473 2.7884749749792173 4.206583949627109 1 0 0
342 0 2 0.5897 12.384002474693085 9.421143960258133 20.659718645353067 0 -2 -2
228 0 2 0.5897 6.545003335260486 3.237316167220945 3.003707485565633 1 1 0
1866 0 2 0.5897 9.318836527441107 1.5467549777980019 1.086884234997301 0 2 1
1864 0 1 -1.1794 8.622152828319155 1.137043755055388 1.564001379562884 0 2 1
1865 0 2 0.5897 8.954541121938632 0.24736192882829727 1.784398637181736 0 2 1
1095 0 2 0.5897 10.406712663565584 3.544702177667595 0.8561826924801663 0 2 1
1523 0 2 0.5897 10.919817450471012 1.4147419394178595 3.9239763381520825 0 1 -1
1093 0 1 -1.1794 10.564698879197321 2.699786433590964 0.41727362271545276 0 2 1
985 0 1 -1.1794 10.082181000942974 2.842225700895672 3.3914240392827604 1 0 -2
987 0 2 0.5897 10.12576768388551 3.7604387588468344 3.0570821320097905 1 0 -2
1776 0 2 0.5897 7.1819643141148966 0.0621081613575699 0.5428798081066044 0 3 -1
986 0 2 0.5897 9.482427570254282 2.300510794421882 2.8103952725566193 1 0 -2
66 0 2 0.5897 3.285221267199527 4.228132043585704 1.0402359577479146 0 5 3
64 0 1 -1.1794 2.987942158660366 4.6183599137122355 1.9268238275632317 0 5 3
762 0 2 0.5897 5.129758206346594 6.553444022007917 1.8311927836711162 0 1 2
761 0 2 0.5897 6.18058369966423 5.471269403380683 2.3391617235593514 0 1 2
760 0 1 -1.1794 5.299593954819184 5.8558425006952 2.4697750824915445 0 1 2
65 0 2 0.5897 3.797080134788345 5.122409505087184 2.198271383993361 0 5 3
122 0 2 0.5897 1.426461089374692 5.366800270039649 2.283428792891403 0 -1 1
1076 0 2 0.5897 3.050037005873725 6.788907528571398 3.6462832110465895 0 1 3
1004 0 2 0.5897 6.12729868221339 4.393055623941491 0.18262997433977657 1 2 2
355 0 1 -1.1794 1.2059841763207837 2.800967165138893 5.98125110728746 0 1 1
1777 0 1 -1.1794 12.08459255246234 15.439592951027866 10.2254768584665 0 0 0
242 0 2 0.5897 11.155688616452451 5.5475719212146215 1.4764597075997252 1 -2 -1
241 0 1 -1.1794 10.459766753101732 5.112858716977147 2.0396058959433714 1 -2 -1
243 0 2 0.5897 9.746655709115673 5.719943341629122 2.212449344946445 1 -2 -1
2110 0 1 -1.1794 8.243111171219265 5.83743901746195 3.1064235661847217 0 1 2
606 0 2 0.5897 11.627826373812585 6.724400199737259 3.662343029775168 0 0 1
786 0 2 0.5897 8.222938273068165 6.900884135750106 1.59825071057413 0 0 0
784 0 1 -1.1794 8.832319748023401 7.388990854060842 0.9722313158183179 0 0 0
2111 0 2 0.5897 7.8307785508948475 5.029324559788744 3.404639821385522 0 1 2
2112 0 2 0.5897 8.07249904361116 6.56507735226541 3.7740519146534472 0 1 2
2125 0 1 -1.1794 4.419576914749468 7.878905534369922 0.8227460265314164 0 3 -1
2039 0 2 0.5897 2.7810070136639267 8.32581193028145 1.8669340580633875 0 1 1
2126 0 2 0.5897 5.184014228287118 8.483489441226562 0.933535589762431 0 3 -1
2038 0 1 -1.1794 1.9702339126949813 8.447916708792288 2.3382554506028925 0 1 1
1373 0 2 0.5897 4.187715665710665 10.70865616255273 1.5971841918231546 0 0 0
1374 0 2 0.5897 4.543128121094474 10.073347163121923 3.0281060745992208 0 0 0
1372 0 1 -1.1794 4.550434762680475 10.84467968092262 2.466921916629805 0 0 0
1999 0 1 -1.1794 6.893591781908727 9.355578590025038 1.162048479559646 1 1 1
1002 0 2 0.5897 6.416630059812761 11.592295250417102 2.338483446921649 1 0 0
1730 0 2 0.5897 6.160317115719274 8.512831081958339 4.117128726396461 1 1 0
2040 0 2 0.5897 1.3605365299368357 9.055745751625224 1.8992986057342562 0 1 1
605 0 2 0.5897 10.845727551448139 8.09781601416186 3.458473655831047 0 0 1
1340 0 2 0.5897 9.748743896959358 8.904167817117841 1.6129810278133838 0 3 -1
1895 0 2 0.5897 8.95459556687933 8.85320533119983 3.417060241187057 0 0 -1
2000 0 2 0.5897 7.2170680682921615 9.702963630781609 2.0108573521394497 1 1 1
2001 0 2 0.5897 7.4978524313514905 8.665817824740119 0.8509775413434983 1 1 1
1339 0 1 -1.1794 10.204636726931236 9.391474888138353 2.3235365874090324 0 3 -1
1341 0 2 0.5897 10.232016881607954 10.353807652301972 2.0919187533565387 0 3 -1
1582 0 1 -1.1794 9.840359077875108 11.975517950733321 1.6880674029430778 0 2 -1
1583 0 2 0.5897 8.88992656421429 12.218937143036033 1.945409826871551 0 2 -1
1584 0 2 0.5897 9.884383286061825 12.242814959375966 0.7679779462948988 0 2 -1
2021 0 2 0.5897 7.667904867438099 10.933592251207916 0.2694718730301901 0 -2 -2
246 0 2 0.5897 11.94328166259496 8.18786022606509 5.249442288160542 1 -1 0
1000 0 1 -1.1794 7.310035578336108 11.900124027343965 2.4383915847078854 1 0 0
1894 0 1 -1.1794 8.157591588347897 8.509183320761466 3.8706962283336748 0 0 -1
551 0 2 0.5897 3.8295231258070492 12.295094944525937 2.876286852254739 0 0 -3
550 0 1 -1.1794 3.416779708252568 13.179164834944082 3.065214534305983 0 -1 -3
552 0 2 0.5897 3.2518659465108075 13.655799154672682 2.204292295658133 0 -1 -3
697 0 1 -1.1794 3.3402887864460764 14.761730157994489 0.9845556299977508 1 -1 1
723 0 2 0.5897 5.996366505835601 15.444952113687485 2.1757961296505295 1 3 1
699 0 2 0.5897 3.4639675308081026 15.69354843325155 1.1481168428062216 1 -1 1
273 0 2 0.5897 1.1371837762310195 12.589824341542064 1.3458621524450798 0 -1 2
698 0 2 0.5897 3.7826020620600005 14.548332899673238 0.10007602182473949 1 -1 1
721 0 1 -1.1794 6.843174457050029 15.471721791059519 1.7843820804801662 1 3 0
722 0 2 0.5897 6.909899088095336 16.15509464290841 1.161808050098545 1 3 0
989 0 2 0.5897 11.111347211734948 12.402039893835251 2.8636252588390088 1 2 -1
1488 0 2 0.5897 9.986486673935605 15.317788912823595 1.575596689682663 1 1 0
1486 0 1 -1.1794 9.961930970946387 15.429457159531491 0.6098167572171226 1 1 0
1001 0 2 0.5897 7.413891597716856 12.335991418605369 3.2946228415399705 1 1 0
1487 0 2 0.5897 10.162507571267671 14.658486539969976 0.15331596442277287 1 1 0
990 0 2 0.5897 12.14004792141257 13.16062811898923 3.7086480487495583 1 2 -1
988 0 1 -1.1794 11.723736001855595 12.31083245664113 3.5821468319938274 1 2 -1
1389 0 2 0.5897 10.607340456312222 15.628505793200553 3.6804811034164397 0 2 0
1082 0 2 0.5897 7.24323637844686 14.388049013359272 0.3314450987932206 0 -1 1
140 0 2 0.5897 1.1628380462557397 9.743659036422274 16.52340063528017 0 0 1
1127 0 2 0.5897 1.3266557384671482 15.77358201648582 3.7644734599097887 0 2 0
1981 0 1 -1.1794 4.376171915359995 17.280719049238098 1.695220241504275 1 -1 1
1982 0 2 0.5897 3.8512424353237305 17.533844454705026 2.494661867288917 1 -1 1
1983 0 2 0.5897 4.3511331371563 17.85849507034891 0.9324598809427874 1 -1 1
1727 0 2 0.5897 5.854352863463814 17.95469296369004 2.4188409337778793 1 -1 1
1774 0 1 -1.1794 6.666202438396159 19.39080326178451 0.11422622167525703 0 2 -1
1775 0 2 0.5897 7.143346794000805 18.599719181679816 0.370910428834428 0 1 -1
1453 0 1 -1.1794 2.833572513865688 16.905377615864932 4.23751378653198 1 0 0
1387 0 1 -1.1794 9.706340265197234 15.855442702232029 3.3048233469491883 0 2 0
1726 0 1 -1.1794 6.455315534947479 18.16645955219735 3.120225593346367 1 -1 1
101 0 2 0.5897 11.55808591575088 19.929918114349135 0.463361188574988 0 -1 -2
1728 0 2 0.5897 7.346357293871677 18.18848718900736 2.6239217132093735 1 -1 1
2082 0 2 0.5897 9.498428934063844 18.623793609693884 3.232893648133864 0 0 3
2081 0 2 0.5897 9.64854243793416 18.505509818600185 1.732832864752581 0 0 3
2080 0 1 -1.1794 8.96481582906084 18.742838401412897 2.41575321425498 0 0 3
100 0 1 -1.1794 11.232271877784408 19.075343222652005 0.8273013143029835 0 -1 -2
102 0 2 0.5897 11.245936721096987 18.498092635362415 0.055462888974439045 0 -1 -2
1388 0 2 0.5897 9.076010490539177 16.192598326713792 3.958405981795864 0 2 0
255 0 2 0.5897 1.2570409794738575 17.391416260401762 0.15504558594132553 0 -2 0
1315 0 1 -1.1794 7.843203970174253 17.08633989695779 20.634637864570355 0 2 -3
1316 0 2 0.5897 8.484401738384225 16.35724328767728 20.641885529402032 0 1 -3
1558 0 1 -1.1794 3.87648955530063 0.1814004041447618 4.124586220453828 0 2 0
1559 0 2 0.5897 4.0440327812240815 1.1250314835631858 4.08745977008192 0 2 0
1560 0 2 0.5897 4.684252953761063 19.905195173549544 4.570088847071493 0 1 0
631 0 1 -1.1794 1.286390033694776 14.261758771845397 6.948188808396368 0 0 2
1113 0 2 0.5897 2.3712925784424166 2.7292162932925152 7.351634316436113 0 -7 0
97 0 1 -1.1794 5.310636374727206 1.26696876866184 7.846735657794318 0 2 -3
98 0 2 0.5897 5.78410555123638 1.5419417802229758 7.04544737196143 0 2 -3
356 0 2 0.5897 1.6359752566269785 2.568999149486135 5.156635072183494 0 1 1
2259 0 2 0.5897 3.734402555459421 3.319585811861427 4.926216576344058 1 0 0
227 0 2 0.5897 6.071347037794275 3.8908262775588955 4.361792166024172 1 1 0
1497 0 2 0.5897 3.2103591117000425 19.578885813619554 5.686475087899 1 -2 -1
1111 0 1 -1.1794 3.133691178451571 2.947963919963524 7.934861084206183 0 -7 0
1112 0 2 0.5897 3.7546790474270217 2.2462016324924923 7.758077581685159 0 -7 0
226 0 1 -1.1794 6.871816312050603 3.6000511948963307 3.873984686064339 1 1 0
1522 0 1 -1.1794 11.37917447598541 0.5778968485640834 4.205601151440554 0 1 -1
1524 0 2 0.5897 11.038390368383949 0.45001057130628286 5.128940996191503 0 1 -1
1342 0 1 -1.1794 7.208886784362908 1.724372114770605 6.060273364542302 0 1 0
1343 0 2 0.5897 7.291890961532689 2.1237347774315167 5.230955438311673 0 1 0
1344 0 2 0.5897 8.010822849323706 2.018923513022609 6.5441025074971675 0 1 0
507 0 2 0.5897 9.72559561935009 0.540178781778844 6.954842593109775 0 1 0
2093 0 2 0.5897 9.831989396757558 2.600554735470055 6.912756667747206 0 0 0
2092 0 1 -1.1794 9.485837958154955 1.9338653062046667 7.5261536056878535 0 0 0
2225 0 2 0.5897 10.403966499747257 3.2533947201679183 5.015626781053079 1 -1 -1
2224 0 1 -1.1794 10.548478113531571 3.568845012440426 5.9396689791838 1 -1 -1
944 0 2 0.5897 6.543989344709849 0.20264637802303048 5.683816316125135 1 -1 1
2 0 2 0.5897 4.336311153240096 5.407391215228872 5.023543570899164 0 0 -1
3 0 2 0.5897 4.842580559270127 4.970273166780158 6.47696942017432 0 0 -1
1 0 1 -1.1794 4.955183762527901 4.842603075045844 5.474080819481467 0 0 -1
1075 0 1 -1.1794 3.2081896940036443 6.769273005225924 4.59369646802381 0 1 3
1077 0 2 0.5897 2.641090534840738 6.170574220706887 5.081061572863106 0 1 3
1518 0 2 0.5897 6.437231181208672 6.119645581555685 5.9408756173144965 0 0 2
1517 0 2 0.5897 6.65892424156874 7.392727796787976 6.751099486968753 0 0 1
1516 0 1 -1.1794 7.153866830714852 6.5771354001423115 6.431642411858283 0 0 1
2128 0 1 -1.1794 1.091833021107847 5.502145321489985 6.165263243534412 0 4 1
2256 0 2 0.5897 4.2302035162353535 4.2812205224044915 8.249391660271847 1 2 2
2254 0 1 -1.1794 4.945015831803792 4.9632832220484975 8.094150384912897 1 2 2
1527 0 2 0.5897 1.6116590519874525 5.12563834319998 8.830411255203016 0 -1 0
604 0 1 -1.1794 11.215538577840425 7.476097168336035 4.078536739429159 0 0 1
2226 0 2 0.5897 10.402103554306409 4.528675113524248 5.884430107731455 1 -1 -1
1767 0 2 0.5897 8.921572331017655 6.163607717814872 6.049594346113918 0 0 -1
1765 0 1 -1.1794 9.882645839817268 6.300279898074109 5.9587414601954665 0 0 -1
1766 0 2 0.5897 10.08154672889338 6.72765770326627 5.111062569847683 0 0 -1
263 0 2 0.5897 9.6669774327266 7.471534746342085 7.6105034546439345 0 1 2
262 0 1 -1.1794 9.481661673364076 8.34042949319142 7.983587200727935 0 1 2
885 0 2 0.5897 11.708097166947551 4.0190607708087684 7.128508070515249 0 2 1
1729 0 1 -1.1794 5.216940314928002 8.626162347355146 4.094307294455059 1 1 0
1054 0 1 -1.1794 12.183535213611998 6.188617680142168 13.126288548422888 0 0 -2
1731 0 2 0.5897 4.8227674031021195 7.8144092958348805 4.451051727129988 1 1 0
468 0 2 0.5897 4.007864862259497 8.920973762970577 7.326687960572419 1 1 3
466 0 1 -1.1794 3.156079929640678 9.333290843162489 7.447486305553285 1 1 2
1587 0 2 0.5897 2.188247021972419 8.950424344229432 5.410052788708458 0 0 -2
1586 0 2 0.5897 1.722661224896619 9.135104376295756 3.965744269430574 0 0 -2
1585 0 1 -1.1794 1.6671871452094034 9.507614944881734 4.827247952073444 0 0 -2
467 0 2 0.5897 3.4179526465485752 10.272275042275822 7.300857432796201 1 1 2
127 0 1 -1.1794 5.676084821342487 8.771856332111764 7.586400602842917 0 1 -1
307 0 1 -1.1794 6.269192367419172 10.91798896901644 5.844112834590026 0 -1 2
309 0 2 0.5897 5.921979099222233 10.29300770390782 5.196279133494418 0 -1 2
129 0 2 0.5897 5.875599841665294 9.677705583490438 7.080272055239131 0 1 -1
308 0 2 0.5897 7.244020272188766 10.809244914396531 5.775401132898554 0 -1 2
1530 0 2 0.5897 6.255878899785987 12.107996937192718 8.454279358058143 0 0 3
1896 0 2 0.5897 8.330649934094687 8.708454566873236 4.778093685181282 0 0 -1
1780 0 1 -1.1794 8.561668245850512 9.954928385789508 6.074707144089899 0 0 2
1782 0 2 0.5897 8.613185714402317 9.438787525733925 6.945232860562243 0 0 2
1324 0 1 -1.1794 10.861070906706722 11.349638164563421 6.139289201780921 0 -1 -2
1325 0 2 0.5897 11.400061342293132 10.58785811930171 5.944454096978324 0 -1 -2
1781 0 2 0.5897 9.432503011417824 10.436463703258877 6.0261322083730775 0 0 2
1326 0 2 0.5897 11.050814079065452 12.037770947240727 5.4717761808707674 0 -1 -2
819 0 2 0.5897 10.005605336808605 11.727620119484671 7.689681114878135 0 0 -5
884 0 2 0.5897 12.28768887127981 4.8840509770997285 8.33462221812686 0 2 1
992 0 2 0.5897 1.9634507631143863 12.640447522056009 4.017222630206125 1 -1 2
1637 0 2 0.5897 4.64875724595014 11.997909529336306 6.445790646452687 0 -1 2
1239 0 2 0.5897 4.564619354735909 14.276947914480782 3.794680654431257 1 -4 -1
1238 0 2 0.5897 5.778714344192341 14.958925965767756 4.538661891390503 1 -4 -1
991 0 1 -1.1794 1.5821767279607557 12.373985885645117 4.887418875085674 1 -1 2
1237 0 1 -1.1794 5.005226704939575 15.159618800605356 4.056377717802043 1 -4 -1
1636 0 1 -1.1794 3.751191867814867 12.219772720647946 6.721672619588434 0 -1 2
222 0 2 0.5897 4.017730837946628 13.900681201704938 7.189882431307772 1 0 2
1638 0 2 0.5897 3.267650930103228 12.413359180942306 5.869789729735506 0 -1 2
220 0 1 -1.1794 4.227923084502408 14.758083919908476 7.54710169297106 1 0 2
221 0 2 0.5897 4.444008170198467 15.500654687357262 6.9333435334427325 1 0 2
254 0 2 0.5897 1.2849145095752983 17.995406447075524 19.619936215381394 0 -2 -1
788 0 2 0.5897 12.328081605442971 19.232000748697267 3.6548888563748525 1 -1 1
252 0 2 0.5897 7.831494044848614 14.3932896668603 4.4049593691437465 1 -1 0
251 0 2 0.5897 7.392661741283997 13.291904934271152 5.486023182402084 1 -1 0
250 0 1 -1.1794 7.8625414285950646 13.445820617897516 4.6784271844569885 1 -1 0
2055 0 2 0.5897 9.511399852396071 14.011776115698662 5.326047319178722 0 -1 -3
2053 0 1 -1.1794 10.041758654271671 14.280391150156891 6.079640912919942 0 -1 -2
2054 0 2 0.5897 9.473130970376747 14.451141826225932 6.857024655074499 0 -1 -2
1572 0 2 0.5897 8.104705435950216 13.051350703946845 7.892266035592796 0 -1 -1
1570 0 1 -1.1794 7.239503856400002 13.177933339711284 7.427917652967164 0 -1 -1
728 0 2 0.5897 11.655218818860734 13.827395889099257 7.169116831922097 1 -1 -2
1571 0 2 0.5897 6.883084351216074 13.96669014399997 7.898227676058314 0 -1 -1
500 0 2 0.5897 1.161004859423625 18.05398681197527 6.793798751871501 1 -2 0
1454 0 2 0.5897 3.652776346010985 16.425506044904093 4.515058032134771 1 0 0
943 0 1 -1.1794 6.070694413778528 19.45623882366241 5.370284272017394 1 -2 1
1496 0 2 0.5897 3.022152345201749 19.339152397465163 7.257661173311131 1 -2 -1
1455 0 2 0.5897 2.5349660974348343 17.29613161326483 5.061249923333251 1 0 0
1495 0 1 -1.1794 2.8617096657391743 18.965401133685248 6.359227513166222 1 -2 -1
1974 0 2 0.5897 5.78104086475082 17.394934969463463 6.268091866414522 1 -1 1
1973 0 2 0.5897 4.235568719803466 17.702275282876595 6.446428722796786 1 -1 1
1972 0 1 -1.1794 4.970754997917622 17.037562037012844 6.6766375412372145 1 -1 1
860 0 2 0.5897 5.797773541315006 17.870550075004807 8.27628104973044 0 3 -3
36 0 2 0.5897 1.1013860948345906 6.1174441043110415 18.54551094730758 0 -1 -1
945 0 2 0.5897 6.380366582128363 19.20614489716536 4.460622267555733 1 -2 1
505 0 1 -1.1794 10.357006126739057 19.809354550345756 6.677242972243566 0 0 0
804 0 2 0.5897 7.083410642971229 17.159652930468212 4.282450582400784 0 -1 -1
802 0 1 -1.1794 7.427012163507657 16.45913085767637 4.897467989523527 0 -1 -1
1884 0 2 0.5897 10.579529409636008 16.14585802353879 5.660095830053552 0 1 1
506 0 2 0.5897 9.842807378422311 18.973474504268548 6.47121443261076 0 0 0
803 0 2 0.5897 7.642549556742229 16.9182553063781 5.7403100803678635 0 -1 -1
808 0 1 -1.1794 8.250168987100135 17.586733121171097 7.238692218607152 0 1 1
1883 0 2 0.5897 11.396277858898609 17.297495205468632 4.912785924756085 0 1 1
810 0 2 0.5897 7.66123665450358 18.004628996253082 7.890865920109744 0 1 1
809 0 2 0.5897 8.896065717510663 17.089556808387435 7.747843826141274 0 1 1
1882 0 1 -1.1794 10.957224460656938 17.040713740048854 5.704062472889327 0 1 1
99 0 2 0.5897 5.952298604702568 1.2847793026321688 8.587335181433945 0 2 -3
294 0 2 0.5897 3.2790519409113337 1.200945119635069 10.1232542098241 0 2 2
1699 0 1 -1.1794 5.567774267127949 0.9661502661141209 12.361375457678614 1 -1 1
293 0 2 0.5897 3.842354755640855 2.542994696126562 10.776024541152246 0 2 3
292 0 1 -1.1794 3.4557726267597295 1.6741415152719104 10.981139468222135 0 2 3
1701 0 2 0.5897 4.725734481975586 1.2594012134834915 11.88925501507329 1 -1 1
1536 0 2 0.5897 2.0476904956681485 2.3212470573925432 11.60841751552748 0 2 0
1867 0 1 -1.1794 2.6631068263806332 20.00831506475063 8.824850362477003 0 3 -2
1868 0 2 0.5897 1.7430015236107566 0.30944826027833616 8.884435553196376 0 4 -1
639 0 2 0.5897 7.011481351447175 1.2675173878473205 11.046916988658792 0 0 1
843 0 2 0.5897 12.0768892996488 0.4961672706007886 11.802392363715633 0 2 0
637 0 1 -1.1794 7.108545441670666 1.1947479404146568 10.108570309435695 0 0 1
638 0 2 0.5897 7.780941867165904 1.8015640602476564 9.748719263436753 0 0 1
2094 0 2 0.5897 9.738903209472035 2.07812810929757 8.418699712240121 0 0 0
1346 0 2 0.5897 10.407569482077818 2.088373174911271 10.716101024647179 0 -3 -1
1345 0 1 -1.1794 9.821481488987347 2.596135752955555 10.111077084803254 0 -3 -1
1347 0 2 0.5897 9.823574669947185 3.493289911126225 10.37328930779579 0 -3 -1
841 0 1 -1.1794 11.88468896663139 1.1194271224793826 11.012734132256485 0 2 0
789 0 2 0.5897 12.157689678955109 18.110349022825467 2.6849982280996563 0 -1 1
1007 0 2 0.5897 6.526505460759573 4.520513487935574 8.602822083664293 1 -1 -3
2255 0 2 0.5897 4.6187223428658655 5.687332836337954 8.648042254916499 1 2 2
1255 0 1 -1.1794 4.00549068303386 6.398543167267428 10.10489636959703 1 -1 -2
1257 0 2 0.5897 3.207291486768636 6.938333628334322 10.098693315215648 1 -1 -2
1256 0 2 0.5897 3.9096278596071268 5.629741018110832 10.704602315773474 1 -1 -2
2246 0 2 0.5897 5.400460671214098 7.721532560549782 10.12620042580763 1 -3 3
1750 0 1 -1.1794 3.997225918921728 4.280275198879112 11.54576035440073 1 -3 2
1751 0 2 0.5897 4.982305014030967 4.402977138547487 11.485029383262578 1 -3 2
1008 0 2 0.5897 8.159043794975734 4.6258416562697935 8.339977773098566 1 -1 -3
1006 0 1 -1.1794 7.490411353941035 4.407904088649068 8.977735456683716 1 -1 -3
1801 0 1 -1.1794 7.069859790789243 4.470643136520356 11.820161545241891 0 1 -1
1802 0 2 0.5897 7.445927578640766 4.390513521636942 10.924271060610632 0 1 -1
1216 0 1 -1.1794 10.068963733590733 5.31555207684443 10.897736676045136 1 -3 1
1217 0 2 0.5897 10.8899154802301 5.5660902974270785 10.449470328072985 1 -3 1
1218 0 2 0.5897 9.537624301482497 6.084769383078996 10.877636060710312 1 -3 1
1639 0 1 -1.1794 8.852564215163682 7.818343331568903 10.580030098338485 0 -1 -3
1803 0 2 0.5897 7.34322186834748 5.347903106709554 12.115778587958818 0 1 -1
1641 0 2 0.5897 8.736822803868066 8.053740501163395 9.602784671121597 0 -1 -3
1640 0 2 0.5897 7.915662278120896 7.73244056848048 10.7233908044949 0 -1 -3
1358 0 2 0.5897 10.167201406277194 8.202640661240302 11.697930782286608 0 1 -3
1532 0 2 0.5897 10.201759163083642 4.293160811674279 12.354125404236145 0 -1 1
128 0 2 0.5897 5.859684985446253 8.989775264652698 8.503846866639005 0 1 -1
2245 0 1 -1.1794 6.040107190219811 8.39167359694502 10.305844938482203 1 -2 3
2230 0 1 -1.1794 2.2264339352497506 8.69165969271501 10.117202742712694 1 -1 0
2231 0 2 0.5897 2.5751503738503496 9.129001132367877 9.312412695329387 1 -1 0
2232 0 2 0.5897 2.01153220785649 9.34568355269526 10.856080497029119 1 -1 0
2247 0 2 0.5897 5.632262800980056 9.127503083579098 10.881581634150736 1 -2 3
1528 0 1 -1.1794 5.673227814948661 11.426145427645617 8.847028631511419 0 0 3
546 0 2 0.5897 4.348369365478748 10.757341445884036 11.072525744916492 0 0 -1
544 0 1 -1.1794 4.839667143394241 10.322230999394698 11.774462875057974 0 0 -1
328 0 1 -1.1794 1.2861381236247673 10.40018409272702 12.219433583881568 0 -2 0
1529 0 2 0.5897 4.906826865582579 11.91880141820098 9.170730689324264 0 0 3
545 0 2 0.5897 5.384584400856784 10.994339627578128 12.228932556086638 0 1 -1
264 0 2 0.5897 10.270235978793623 8.644335874923804 8.401462575724373 1 1 2
525 0 2 0.5897 7.099617887038069 10.98079867806829 9.864153735052348 0 0 -2
1359 0 2 0.5897 11.497055778985187 9.073636036893113 11.734732406241294 0 1 -3
524 0 2 0.5897 8.546259359897562 11.470180903649869 9.726149242814131 0 0 -2
523 0 1 -1.1794 7.860588818523473 11.295370379731917 10.376037279559654 0 0 -2
278 0 2 0.5897 8.052927028690235 10.032610469559017 12.045211776757933 0 1 -2
1357 0 1 -1.1794 10.922493940536638 8.529708467762816 12.316510889669873 0 1 -3
1048 0 1 -1.1794 12.139661323688799 15.079617382095773 3.5594084098969923 0 1 0
1979 0 2 0.5897 5.7423032636099505 15.681186637243314 8.964524547516366 1 1 1
964 0 1 -1.1794 3.4115849338737876 12.021175484807937 10.247069638928654 1 1 2
965 0 2 0.5897 2.5601387419840202 12.18736907066864 9.846766642697661 1 1 2
966 0 2 0.5897 3.644671379855356 12.896081906035322 10.496986785946056 1 2 2
1192 0 1 -1.1794 4.886041305298037 14.044953685421081 11.48551159445094 1 -2 1
1193 0 2 0.5897 5.436035738927541 14.403405935104038 10.798346754394222 1 -2 1
20 0 2 0.5897 2.1694623393412265 13.820652923967774 12.107489727117436 0 0 1
21 0 2 0.5897 2.235825085725395 14.942345621681445 10.96436496067231 1 0 1
1392 0 2 0.5897 5.960927588511101 13.063468605070984 12.068013113304078 0 -1 -1
19 0 1 -1.1794 1.6242855871060384 14.452932453500644 11.58927630623237 0 0 1
1194 0 2 0.5897 4.824846600938452 14.799305674044154 12.089103854004465 1 -2 1
1978 0 1 -1.1794 6.434444514191793 15.162139128127375 9.369368242105194 1 1 1
1053 0 2 0.5897 3.1350030864336134 15.23930789775114 8.68977290110277 0 -2 -2
1051 0 1 -1.1794 2.6885610989653506 15.59720119359022 9.498808570199001 0 -2 -2
1797 0 2 0.5897 12.211597677890653 13.568090632009408 16.476038246167015 0 1 2
817 0 1 -1.1794 9.686339635262597 12.081085224971035 8.54251121025108 0 0 -5
1390 0 1 -1.1794 6.730117037117486 12.594804566331016 12.434774490686658 0 -1 -1
1391 0 2 0.5897 7.317029111029775 12.314026546737205 11.694407270237779 0 -1 -1
818 0 2 0.5897 10.567498912348487 12.183874369209345 8.969915547623863 0 0 -5
1090 0 1 -1.1794 12.031025707431496 12.588018977172975 10.410338887521048 0 1 -1
1091 0 2 0.5897 12.007395091539404 13.103630408802612 11.198182732155702 0 1 -1
2096 0 2 0.5897 10.610480295319322 15.490757672009634 9.148957584361659 0 -1 0
2097 0 2 0.5897 9.269333373025702 15.082678964639292 9.464791066085452 0 -1 0
2095 0 1 -1.1794 9.706821370466525 15.493945873095514 8.732410076193048 0 -1 0
1074 0 2 0.5897 1.2085765088763198 6.984505592924644 12.484427269777392 0 -1 0
1980 0 2 0.5897 7.063797866614531 15.73672865216914 9.858580077084136 1 1 1
1869 0 2 0.5897 2.7364818842590464 19.293460377290618 9.445156322598814 0 3 -2
1615 0 1 -1.1794 2.97462880421887 18.014968117386957 10.62287198071636 0 0 -1
1052 0 2 0.5897 2.939659088795029 16.521443954139528 9.635911804538557 0 -2 -2
1616 0 2 0.5897 2.127915736446399 18.107882698619626 11.10851130144121 0 0 -1
1617 0 2 0.5897 3.6985031164647046 18.196119984798678 11.21879013387824 0 0 -1
1494 0 2 0.5897 6.048478702977989 18.554360094154266 10.869240119085855 1 0 0
1492 0 1 -1.1794 5.45706322117583 18.381652584580994 11.68641012931162 1 0 0
1493 0 2 0.5897 5.589116801827156 19.191778616851053 12.202250919611021 1 0 0
859 0 1 -1.1794 6.128413580609321 18.54551710487275 8.826372219025387 0 3 -3
861 0 2 0.5897 5.882997979178839 19.362227218940667 8.391918930226932 0 3 -3
1891 0 1 -1.1794 12.056790990288604 8.362981460763388 8.81018014794952 0 2 -1
1611 0 2 0.5897 8.148843270264802 19.617602274155058 10.412857719200204 0 2 -1
842 0 2 0.5897 11.58952141809535 0.48133453963028805 10.31696437026545 0 2 0
1247 0 2 0.5897 8.051406646388095 15.877493520374859 12.23698324039583 1 1 2
1551 0 2 0.5897 8.579972590208435 19.465880503263442 12.42221681618221 0 -3 -2
890 0 2 0.5897 11.767041367296413 18.218507021983665 9.286150433810368 0 -3 1
1246 0 1 -1.1794 8.246189664682685 16.12623165353673 11.317118744400739 1 1 2
1248 0 2 0.5897 8.343753741764235 17.07452562439785 11.327746396276137 1 1 2
1609 0 1 -1.1794 8.639100636312387 18.86065758583228 10.79666854396136 0 2 -1
1610 0 2 0.5897 9.422145655430004 18.74052376743153 10.308987423553363 0 2 -1
889 0 1 -1.1794 11.34545902664456 18.65437449082058 10.039033259877417 0 -3 1
891 0 2 0.5897 11.480688291866262 18.039649369726504 10.811362235792071 0 -3 1
1301 0 2 0.5897 10.07063168010473 16.699131292659526 12.149123137205175 0 0 0
1300 0 1 -1.1794 10.938761025095179 16.96667283266518 12.495427985698765 0 0 0
330 0 2 0.5897 1.1974289327342837 9.480471457340448 12.468221328419014 0 -2 0
1700 0 2 0.5897 5.539390879908012 1.447288096271676 13.20862515105628 1 -1 1
296 0 2 0.5897 4.784095746502871 3.5264000193809086 14.633167490126763 0 -1 -3
295 0 1 -1.1794 5.186014186171339 2.6338016261642467 14.698564396931776 0 -1 -3
494 0 2 0.5897 3.3729701500368705 2.035062680350753 14.406697812522665 1 1 -2
493 0 1 -1.1794 2.4743178489972237 1.6660397986477171 14.505025735112536 1 1 -2
495 0 2 0.5897 1.9414239435290717 2.1720811226734016 13.865979805907246 1 1 -2
297 0 2 0.5897 5.918983376013511 2.6408093475479664 15.389527905532539 0 -1 -3
2006 0 2 0.5897 2.2298697119080844 2.0070203723145785 16.435913645916564 1 1 -1
60 0 2 0.5897 6.3766062159529895 0.6966352331658476 15.713584094870901 0 -2 0
561 0 2 0.5897 7.375551213797405 3.0360754216828165 12.903243096520429 0 -3 2
58 0 1 -1.1794 6.898427840003165 1.3425709615087806 16.194110724068334 0 -2 0
559 0 1 -1.1794 7.9255044628777735 2.40471340251072 13.427678002582763 0 -3 2
560 0 2 0.5897 7.924158083905492 1.461405380773433 13.029006082040839 0 -3 2
281 0 2 0.5897 11.647567997414999 2.584704318887981 13.792004185626313 0 2 -2
1293 0 2 0.5897 10.828950847329576 0.9819258407394886 14.881406253174587 0 1 0
1533 0 2 0.5897 9.53361314362394 3.1345359361275387 13.097120446672186 1 -1 1
32 0 2 0.5897 7.942546861569626 3.690637468592612 14.826330156841133 0 3 0
59 0 2 0.5897 7.7541522129181155 1.2487891169210492 15.715853437349635 0 -2 0
1291 0 1 -1.1794 10.010190540090626 0.40837080109376506 15.14433037847785 0 1 0
1531 0 1 -1.1794 10.337670549575664 3.637318211405528 13.067701285445684 0 -1 1
2042 0 2 0.5897 9.963198607887255 3.2122318881393506 16.5543665752297 0 -1 0
2090 0 2 0.5897 11.934862104517128 19.451231189047967 13.761805661772494 0 1 -1
280 0 1 -1.1794 12.148304088158751 2.0832670388596584 14.473812206222698 0 2 -2
1072 0 1 -1.1794 1.5019807187950407 7.683908888971122 13.101463494014968 0 -1 0
1754 0 2 0.5897 2.4740387602020486 4.5273696631328875 14.4396520329624 1 -2 1
1753 0 1 -1.1794 3.3254569017572386 4.9167227223249546 14.256243552075409 1 -2 2
1752 0 2 0.5897 3.800666094152152 4.585181037800182 12.450607952459487 1 -3 2
1755 0 2 0.5897 3.453005932004478 5.705742824842508 14.827278891010758 1 -2 2
70 0 1 -1.1794 5.904368354372492 6.90793178795935 14.96849950999868 0 0 1
72 0 2 0.5897 5.176733783664771 7.3588459088629135 14.460777866830046 0 0 1
71 0 2 0.5897 5.607732033060611 6.104755553414354 15.42191333890168 0 0 1
981 0 2 0.5897 3.344402802303462 7.580531929087816 16.39206881678239 1 1 -2
980 0 2 0.5897 1.9959865992315526 6.80025555744452 16.195387491065212 1 1 -2
979 0 1 -1.1794 2.937537909675598 6.703206462720339 16.432120902084154 1 1 -2
1480 0 1 -1.1794 5.930851568358797 4.834879217110928 17.10754554240606 1 3 -3
1778 0 2 0.5897 12.30070014617496 16.20630115446522 10.73448452660117 0 0 0
31 0 1 -1.1794 8.23882149030371 4.238448828002891 15.630906145602909 0 3 0
33 0 2 0.5897 7.391679125758014 4.476420363536011 16.005183465806002 0 3 1
1557 0 2 0.5897 9.43095060955926 5.11108354076207 15.145047768249187 0 1 0
1055 0 2 0.5897 11.86706123413179 7.091529808001445 12.891712491136513 0 0 -2
1271 0 2 0.5897 6.9414855406931055 6.602525124518326 13.696539306324214 0 -2 0
1270 0 1 -1.1794 7.642553794746301 6.813169183939503 13.029446029192822 0 -2 0
1272 0 2 0.5897 8.512707594037913 6.6053738480121655 13.403181829079593 0 -2 0
1555 0 1 -1.1794 9.844322653828888 5.861461918377683 14.663805650542733 0 1 0
1556 0 2 0.5897 10.592079979707197 5.590546497411333 14.060283397182348 0 1 0
2036 0 2 0.5897 10.01686209854495 7.284682368941527 15.422434920220603 0 4 2
732 0 2 0.5897 2.8930186431425566 8.156397595658852 13.693861393551106 1 3 -1
730 0 1 -1.1794 3.873807729333106 8.323769455290737 13.816500207168005 1 3 -1