LAMMPS data file via write_data, version 23 Jun 2022, timestep = 0

2268 atoms
2 atom types

0.8625274336043027 46.588171566388496 xlo xhi
0 20.047001 ylo yhi
0 20.857 zlo zhi

Masses

1 1.008
2 15.999

Atoms # full

130 0 1 -1.1794 3.538830679814527 2.7815167826540943 1.0836753225961224 0 0 0
131 0 2 0.5897 3.0681894707609696 2.9020079550569933 1.9022958128863345 0 0 0
1097 0 2 0.5897 1.981581897181126 0.9612646941063453 1.6968677869790836 0 1 0
132 0 2 0.5897 4.2747712519450545 3.368540189554842 1.0940362984164167 0 0 0
1323 0 2 0.5897 5.3246469668197856 1.486250087575155 1.2545802644377675 0 0 1
1098 0 2 0.5897 2.6498520055075803 0.469297379049437 0.476848733515543 0 1 0
724 0 1 -1.1794 1.3699475179766267 2.4951538740140755 2.9292653163899 1 1 0
726 0 2 0.5897 1.4979736643210328 1.6956142257991105 3.490732686613582 1 1 0
1321 0 1 -1.1794 5.795288414467526 0.6552447635080672 1.189664877581504 0 1 1
1096 0 1 -1.1794 2.287365156453312 0.13570623787110206 1.2921793728635007 0 1 0
1322 0 2 0.5897 5.406713550061316 0.14841261258766794 1.8781101937112923 0 1 1
2018 0 2 0.5897 6.1628194098888045 2.8804209751488905 3.6140284236397138 1 -1 -1
2130 0 2 0.5897 6.4424917874039584 3.8362385020477663 1.6006499802433498 0 0 1
725 0 2 0.5897 1.419066825110406 3.231173634525078 3.549053843394764 1 1 0
379 0 1 -1.1794 4.79185456883253 2.302470480517366 4.10135047520428 0 1 1
2017 0 1 -1.1794 6.9333284902998376 3.2858380199132524 3.1002244980320626 0 -1 -1
1989 0 2 0.5897 11.302539839965004 3.2219290615451506 1.2523582834019504 1 0 1
526 0 1 -1.1794 8.408731238756578 1.4586746412399343 0.7440323060638254 0 0 0
527 0 2 0.5897 7.471883710802494 1.2740792863237183 0.9524146651924449 0 0 0
782 0 2 0.5897 8.203464133322498 2.327144088936462 3.430708525145751 0 0 0
783 0 2 0.5897 9.527957950813114 1.9014343799169358 2.8665132774319115 0 0 0
781 0 1 -1.1794 9.108013121461097 2.0812992477308203 3.691547195416373 0 0 0
528 0 2 0.5897 8.89845838540565 0.6429521417016273 1.0163125261845458 0 0 0
1001 0 2 0.5897 11.734343966410217 0.779256843385252 1.4512354229898883 1 1 1
530 0 2 0.5897 8.63710928965571 0.2906153641306566 4.043752803243025 0 0 0
1002 0 2 0.5897 12.145207150332913 1.403102140445748 2.6831212509380995 1 0 1
585 0 2 0.5897 8.567202973170474 2.8060576975732876 0.0358818342694958 0 0 -1
1000 0 1 -1.1794 11.721264272907503 1.6218991080702825 1.8945252815015163 1 0 1
1297 0 1 -1.1794 3.567083256220642 4.854518101212632 3.3002984397258524 0 0 -1
477 0 2 0.5897 3.169144253098496 5.69421968959172 1.554878953254499 1 0 0
475 0 1 -1.1794 3.298942202928244 6.018442033483731 0.6323167003296577 1 0 0
1298 0 2 0.5897 2.7431300733964337 5.335603952614865 3.3703288228671155 0 0 -1
476 0 2 0.5897 2.8279082404131555 6.8788460199162405 0.6763298629977266 1 0 0
2129 0 2 0.5897 5.914275053216192 5.044731447199941 0.7706877175414663 0 0 1
2128 0 1 -1.1794 6.0870873626735955 4.080645534979804 0.7444527927837221 0 0 1
1299 0 2 0.5897 4.262416177243613 5.511886892419994 3.56892656104722 0 0 -1
32 0 2 0.5897 4.914648619692519 7.957855362709668 3.4248435852026167 0 1 0
1077 0 2 0.5897 1.8125516990194557 7.39439455298955 3.1947393296484963 0 0 1
1773 0 2 0.5897 5.350343396595312 7.787218453090463 1.3193524249919293 0 -1 1
826 0 1 -1.1794 6.36114952325437 6.724450009624064 0.3728481886483172 0 -1 0
31 0 1 -1.1794 5.086509979379401 7.325127153723737 4.103180018195218 0 1 0
1075 0 1 -1.1794 1.5133203288186947 6.4808847681213475 3.3589606041065276 0 0 1
1988 0 2 0.5897 10.075214722328354 4.155122774049489 0.7997633077467731 1 0 1
888 0 2 0.5897 11.938163139575256 4.632243131570956 2.8236137810411304 0 1 -1
1987 0 1 -1.1794 11.03787460134056 4.170802957821239 1.1033341916829489 1 0 1
2019 0 2 0.5897 7.049680706535098 4.099320191735351 3.6591150725344406 0 -1 -1
763 0 1 -1.1794 9.693891483039646 6.841106882140318 3.194988178387342 0 0 1
765 0 2 0.5897 10.07471470206776 7.692506416962534 3.51447229465114 0 0 1
827 0 2 0.5897 7.362046321230706 6.683528053567885 0.3000492421892822 0 -1 0
1574 0 2 0.5897 9.298815889787425 6.702577510971103 1.4576412511515378 0 0 1
764 0 2 0.5897 10.41731654811653 6.194168239328248 3.3252430964734816 0 0 1
1573 0 1 -1.1794 8.98883262938269 6.332419469300932 0.5999124025324792 0 0 1
839 0 2 0.5897 11.93367135229925 5.926197614475175 0.9591782459350577 0 -1 0
1827 0 2 0.5897 8.246836776294119 6.217273747891045 3.9905318969424477 0 0 2
886 0 1 -1.1794 12.054032733506421 5.126748152501016 3.6298334187650854 0 1 -1
1771 0 1 -1.1794 5.015528242821765 8.5903296046768 1.8392979313270195 0 -1 1
1340 0 2 0.5897 2.1123976684462846 9.635646609345399 3.0311186232226026 0 0 0
1772 0 2 0.5897 4.0508020087634 8.39795247862989 1.7797343369671497 0 -1 1
1339 0 1 -1.1794 2.2699168421943368 8.936546486068163 2.3544444733072227 0 0 0
1531 0 1 -1.1794 6.376934106715511 10.81183511794749 0.5961780995569336 0 -1 1
1533 0 2 0.5897 5.977081234384101 9.957351123341043 0.8617957038713442 1 -1 1
1532 0 2 0.5897 6.543787837037789 11.409946887615778 1.3183895481211991 0 -1 1
1341 0 2 0.5897 1.7646645358980237 9.220785334937112 1.5681268268010367 0 0 0
1380 0 2 0.5897 6.460790235788691 10.127910017513141 4.14689597729443 0 0 0
1862 0 2 0.5897 3.2192329521306786 11.896665585681298 2.011157544522165 0 0 -1
1304 0 2 0.5897 6.968807008394194 8.270153325806794 2.4709507578376053 0 0 0
1063 0 1 -1.1794 9.163496463335425 9.983791534498922 0.7651140056014435 0 0 0
1303 0 1 -1.1794 7.76809287573317 8.659405161024239 2.9454446659386924 0 0 0
1305 0 2 0.5897 8.126052325251326 9.192862845677176 2.2365163843229783 0 0 0
1065 0 2 0.5897 9.223397967375666 10.936634511871155 1.0390439638235451 0 0 0
2121 0 2 0.5897 10.619108720851147 10.903863590868495 3.312824971506059 0 0 0
1064 0 2 0.5897 8.435151151238006 10.03757518984659 0.09572644152767647 0 0 0
2119 0 1 -1.1794 10.352367224133978 11.80113821762606 3.128382195159111 0 0 0
92 0 2 0.5897 11.852648365428216 8.925140403094197 3.25650209820893 0 0 1
91 0 1 -1.1794 11.15379795846376 9.00478094843359 3.952760964737449 0 0 1
1228 0 1 -1.1794 1.451472253420179 15.014519864961926 3.3503110430361223 1 0 0
1861 0 1 -1.1794 3.013337710670994 12.70657072754704 2.5622356906735453 0 0 -1
1863 0 2 0.5897 3.6541728353343177 12.598911955662613 3.3086392189099203 0 0 -1
768 0 2 0.5897 3.5873934240512395 13.976969944658423 1.1677912331614435 0 -1 0
1764 0 2 0.5897 5.52236487473241 15.53826837783527 1.9166451391194566 1 -1 1
1823 0 2 0.5897 1.4896100516851043 14.042584062250944 1.7112261189038587 0 1 -1
1763 0 2 0.5897 5.82667381265975 15.558406843348914 0.47593012911222204 1 -1 1
1762 0 1 -1.1794 6.274979172916639 15.507675666018594 1.3274704840109042 1 -1 1
1529 0 2 0.5897 1.4348954214211673 12.615083600913874 3.8017290877027374 0 0 1
766 0 1 -1.1794 3.6719947954217766 14.519151306956127 0.34898199247666284 0 -1 0
1229 0 2 0.5897 1.262080439262219 15.982192161767577 3.243682162588684 1 0 0
875 0 2 0.5897 8.404340662282152 12.3628774437659 2.5495425914276706 0 0 0
2120 0 2 0.5897 11.05668342403405 12.265105415197505 2.6048186678915797 0 0 0
874 0 1 -1.1794 7.691643840546057 12.828005519300744 2.0871815652735957 0 -1 0
876 0 2 0.5897 7.150198849248686 13.334069715412062 2.711269750751006 0 -1 0
1045 0 1 -1.1794 9.390303407855027 15.198301078948282 2.1951163523067203 0 0 0
610 0 1 -1.1794 11.596535767001845 13.471915658559258 1.607675123546248 0 -1 0
612 0 2 0.5897 10.98290435720443 14.191696471831335 1.6140270308770945 0 -1 0
611 0 2 0.5897 11.650345894238695 13.19485387196272 0.6925793143213653 0 -1 0
1047 0 2 0.5897 8.912599644104047 14.386301300798193 2.1052271746800106 0 0 0
1313 0 2 0.5897 10.837533511296758 15.841762846886152 3.3889207083374258 0 -1 1
1046 0 2 0.5897 9.12081065714974 15.650433699036347 1.3448532506925195 0 0 0
786 0 2 0.5897 8.497678295958078 15.993134616673961 3.900653538946903 0 0 0
2038 0 1 -1.1794 1.4464271936170499 17.818084348873175 3.206492777848165 0 0 0
801 0 2 0.5897 3.4350907836690783 16.12590780529958 3.006513272870109 0 0 0
799 0 1 -1.1794 4.291082650766397 16.52772069475431 3.0309853334049053 0 -1 0
891 0 2 0.5897 3.7692393966873925 19.73973477552694 2.4655891388736224 0 -1 2
800 0 2 0.5897 4.118368088831705 17.45274782168148 2.9074865183844856 0 -1 0
889 0 1 -1.1794 4.477828800492005 19.273178601929107 2.9873612978063937 0 -1 2
890 0 2 0.5897 4.544757460534314 19.741632484738137 3.7918196147378875 0 -1 2
25 0 1 -1.1794 2.550053557275324 17.140264381479913 0.754064901080847 0 0 1
2040 0 2 0.5897 1.9915595461193614 17.98323439247492 2.435266443685954 0 0 0
2039 0 2 0.5897 1.1610667671206576 18.67813964584701 3.552973530296303 0 0 0
27 0 2 0.5897 3.385141614384588 17.66456232969363 0.5389078343647487 0 0 1
26 0 2 0.5897 2.8146940143828725 16.291058997962114 0.4875465731853926 0 0 1
1312 0 1 -1.1794 11.347033431173678 16.09072525275836 4.1126330421986745 0 -1 1
8 0 2 0.5897 6.714495828401434 18.361857358721142 1.7468557501264612 0 -1 0
1036 0 1 -1.1794 11.647507772045222 18.697128507411627 3.145910952686258 0 -1 0
9 0 2 0.5897 7.3512375913746375 17.014206188368743 1.737051722012959 0 0 0
7 0 1 -1.1794 7.555144288552596 17.929925120794525 1.9234740755368551 0 -1 0
1781 0 2 0.5897 9.203865263962914 18.421360824635943 0.90718460886534 0 -1 0
1780 0 1 -1.1794 9.93375091534492 19.0566955969108 1.0880583687723087 0 -1 0
1782 0 2 0.5897 10.193278000535157 19.349951597248864 0.1528233394128992 0 -1 0
1037 0 2 0.5897 10.908093203808614 18.814138878974497 2.5260934746001644 0 -1 0
531 0 2 0.5897 8.446273808057889 18.94305859306537 3.4345285874461755 0 -1 0
1038 0 2 0.5897 11.598263357481187 17.71149885265874 3.3834285423246113 0 -1 0
133 0 1 -1.1794 12.047102350792695 16.683195340436402 0.9031366683081916 0 0 0
135 0 2 0.5897 12.096847818090625 17.622113579251977 1.0907015651558232 0 0 0
381 0 2 0.5897 4.1474955724633205 3.0712378336057413 4.211013553965359 0 1 1
380 0 2 0.5897 4.570465825200898 1.6301943460702 4.818125077747992 0 1 1
864 0 2 0.5897 2.4130422049982165 1.5697775883304517 6.262644211059337 0 1 -1
97 0 1 -1.1794 1.8730174092624166 3.2805801777925363 5.83750485352468 0 1 -1
862 0 1 -1.1794 2.4806163652922546 0.6288330931522828 6.525725480211874 0 1 -1
863 0 2 0.5897 2.429063631365607 0.6312093687590586 7.524808277152573 0 1 -1
99 0 2 0.5897 2.5886917193809835 3.8538407979572344 6.17581846653049 0 1 -1
98 0 2 0.5897 1.060628680064675 3.660939469164315 6.1460386350894085 0 1 -1
836 0 2 0.5897 4.055871397668497 3.33447457269693 8.018672621297991 0 1 0
1611 0 2 0.5897 1.6373437725869433 0.24658248979407982 5.178533672595901 0 1 0
1270 0 1 -1.1794 4.808809971249305 0.16905056250678116 5.559207834206454 0 0 0
1272 0 2 0.5897 5.67361290513476 0.003731211023732405 5.898877430169597 0 0 0
1609 0 1 -1.1794 1.1090752906807748 0.11177643857953777 4.369995562895948 0 1 0
1646 0 2 0.5897 7.1084050597457935 1.060572392859313 7.682716962788975 0 0 0
1062 0 2 0.5897 7.345450180028769 3.1903725315368945 6.923812600199482 0 -1 0
1647 0 2 0.5897 8.673380025977863 1.017034701446025 7.429163134475342 0 0 0
1645 0 1 -1.1794 7.901878594556304 1.608652988933531 7.413363036692822 0 0 0
1360 0 1 -1.1794 10.843739931186342 3.3347908297342737 5.265500710944252 0 -1 0
1362 0 2 0.5897 10.019447218410553 3.119316250757036 4.799353202136557 0 -1 0
1795 0 1 -1.1794 10.12066985442948 0.029917754710879763 7.3998464469314555 0 0 1
1361 0 2 0.5897 10.654528156169127 3.4040079395470757 6.235889217109326 0 -1 0
1797 0 2 0.5897 10.429502195128883 0.4372047020281327 8.185034538609653 0 0 1
46 0 1 -1.1794 10.370501019617517 3.3150331424863633 7.915637056961928 0 0 0
1334 0 2 0.5897 12.034787044024707 2.4062210729814875 4.786555129171897 0 0 1
1618 0 1 -1.1794 1.238512877745386 6.811622006558055 6.024341390830924 0 0 0
1524 0 2 0.5897 5.42455811704988 4.385739531225694 6.60335043970617 0 0 -1
1522 0 1 -1.1794 4.445510246245123 4.553943737576194 6.539429655213266 0 0 -1
1523 0 2 0.5897 4.249734638863208 5.362030772213141 6.991819233404176 0 0 -1
1620 0 2 0.5897 2.101402915790547 7.247938598346466 6.289487888424282 0 0 0
33 0 2 0.5897 4.626092598097351 7.537103996318773 4.900245034235205 0 1 1
990 0 2 0.5897 6.514715006106522 7.135918826127345 7.961704019310432 1 0 0
988 0 1 -1.1794 6.284856211277364 7.861024325638951 7.321187370999921 1 0 0
1076 0 2 0.5897 1.2531243836205548 6.49313243391289 4.296798056638446 0 0 1
1826 0 2 0.5897 6.920212185244684 6.104315067471119 4.516426836707941 0 0 2
1825 0 1 -1.1794 7.660424629170785 5.5791608621181075 4.407765129939706 0 0 2
1060 0 1 -1.1794 7.028322750860412 4.067567702719269 6.676915082295185 0 -1 0
506 0 2 0.5897 6.814203348074979 5.05264633713869 8.210116261322392 0 1 0
887 0 2 0.5897 11.55253083717595 4.637803275175432 4.267958613096868 0 1 -1
1061 0 2 0.5897 7.621062791965664 4.484203622814009 6.050286564614919 0 -1 0
277 0 1 -1.1794 10.148723060814447 7.335825862165705 7.415300151683579 0 0 0
278 0 2 0.5897 9.45332823581135 7.457255918143879 6.79097291189654 0 0 0
279 0 2 0.5897 9.68083199661781 7.534427455834372 8.263170482438337 0 0 0
635 0 2 0.5897 11.503934353359334 7.041198701096007 6.362203536612163 0 0 1
47 0 2 0.5897 10.768978015589395 4.149995678538856 8.235052818125055 0 0 0
300 0 2 0.5897 12.289216377266284 6.098892499267204 8.129251546069703 0 0 -1
1378 0 1 -1.1794 5.856826334462545 10.877567182163823 4.374195226091536 0 0 0
1379 0 2 0.5897 4.993775918496445 10.505266039230099 4.243658098592923 0 0 0
1789 0 1 -1.1794 3.693743648920611 8.161595643315932 6.746566782309721 0 0 0
1791 0 2 0.5897 4.673265781974102 8.070390852793397 6.847482491556705 0 0 0
1790 0 2 0.5897 3.418498067301434 8.620199470118905 7.549969084752089 0 0 0
324 0 2 0.5897 2.4302291479148566 11.023581736511868 4.863386710749266 0 -1 0
323 0 2 0.5897 3.167798161069454 9.819090910194557 5.492735079282429 0 -1 0
322 0 1 -1.1794 2.9841226451124743 10.294267877842405 4.645639328675231 0 -1 0
1351 0 1 -1.1794 2.4570418073460667 11.724812028162095 7.237891704487945 0 0 0
371 0 2 0.5897 5.682733428021319 11.146713003330515 7.635016344529108 0 0 1
510 0 2 0.5897 1.7692163832635015 10.2104633749599 8.009176508130496 0 -1 0
508 0 1 -1.1794 1.7482443941542463 9.267695490587242 8.209271915863901 0 -1 0
372 0 2 0.5897 6.079533375363094 9.678714552566927 8.086826432553345 0 0 1
1143 0 2 0.5897 11.713161285494749 8.745278934902261 7.870325361251379 0 0 0
989 0 2 0.5897 7.117441243462582 8.135106670547916 6.863283314129901 1 0 0
16 0 1 -1.1794 8.209168482408385 8.611836628504852 5.756576623519313 0 -1 0
18 0 2 0.5897 8.837371550623015 9.20723493901833 6.1652446039779605 0 -1 0
17 0 2 0.5897 8.250304175265871 8.622261058002662 4.771196264658695 0 -1 0
850 0 1 -1.1794 9.575792503847945 10.446768193965918 7.0489304689215935 0 -1 0
93 0 2 0.5897 11.714394987063727 8.68468442115154 4.683039504111687 0 0 1
851 0 2 0.5897 9.174572312139954 11.183223849161209 6.5092146986832065 0 -1 0
852 0 2 0.5897 10.476600413859833 10.693129812744056 6.877484224396268 0 0 0
1528 0 1 -1.1794 1.1245803886326708 12.387517767286178 4.647594446946519 0 0 1
1652 0 2 0.5897 5.637519344138858 13.95404886929744 4.3718816018388775 0 0 0
1352 0 2 0.5897 1.8450789341482856 12.1392211329937 6.63011176893924 0 0 0
1872 0 2 0.5897 6.040944225378252 12.061360072608297 5.752665361234453 0 -1 0
1870 0 1 -1.1794 5.878096192179533 12.369470537039694 6.677065469296033 0 -1 0
1798 0 1 -1.1794 3.8493624523516794 13.439173020707036 4.939048914297998 0 0 0
1353 0 2 0.5897 2.5771775935732957 12.300101821696677 7.9781875451048005 0 0 0
1799 0 2 0.5897 3.144913315892415 14.02364391866756 5.350262665276433 0 0 0
1800 0 2 0.5897 3.9995543796222366 12.780174659272774 5.635259364534178 0 0 0
614 0 2 0.5897 3.986442115505981 13.87877154374332 7.909113228150577 0 0 0
615 0 2 0.5897 2.804863599305172 14.826718888763969 7.780988657560909 0 0 0
2046 0 2 0.5897 5.90386014619033 15.689867875943674 6.56734485086333 0 -1 0
2044 0 1 -1.1794 6.015556982145651 14.957992477852164 7.241264918806472 0 -1 0
793 0 1 -1.1794 1.6926023997212716 14.9463065913285 6.117801947873165 0 -1 1
1871 0 2 0.5897 6.074990821254826 13.3351340990118 6.725244906200799 0 -1 0
795 0 2 0.5897 1.7986594015460735 15.915512436122633 6.108866370514265 0 -1 1
1230 0 2 0.5897 1.398842374104929 14.915656524645389 4.292079073500101 1 0 0
1651 0 1 -1.1794 6.634124952957898 13.898823320241183 4.328911908097639 0 0 0
1653 0 2 0.5897 6.943094794349657 14.763859840607363 4.565696762302403 0 0 0
2045 0 2 0.5897 6.911026937466696 15.234500027775779 7.632787517185297 0 -1 0
111 0 2 0.5897 9.755555045270302 12.43482102150693 4.616320018326583 0 0 -1
109 0 1 -1.1794 9.080659294644182 12.648683530526801 5.317152738275771 0 0 0
110 0 2 0.5897 8.226977036911734 12.984065529384942 4.962673530555983 0 0 0
515 0 2 0.5897 10.008964581711263 13.543528049036034 6.766247934042305 0 -1 -1
514 0 1 -1.1794 10.266090019430825 13.92367284263591 7.677903498132506 0 0 -1
1332 0 2 0.5897 8.911084590481467 15.069912270697923 7.986876895479981 0 -2 1
784 0 1 -1.1794 8.349879850801031 15.834839568328391 4.856650417681871 0 0 0
1330 0 1 -1.1794 8.218312677745052 15.701313994658978 8.332593823807882 0 -2 1
2055 0 2 0.5897 12.088496529640224 14.45604834478075 4.740049252123234 0 -2 -1
21 0 2 0.5897 12.247387135967182 13.53891141492687 8.226306162948303 1 0 -1
1271 0 2 0.5897 4.19270585375536 20.041987843944472 6.274621185428819 0 -1 0
1819 0 1 -1.1794 5.46340001766748 17.010795641657886 5.50374811456663 0 0 0
1821 0 2 0.5897 6.07060463176422 17.79588830184333 5.58804327404019 0 0 0
1820 0 2 0.5897 5.101710020749987 16.892300259432915 4.588726786581986 0 0 0
1260 0 2 0.5897 2.4924132297862123 17.675473123830365 4.879388414717027 1 0 0
1259 0 2 0.5897 3.578088146188813 17.763990986098698 6.019744385193088 1 0 0
1258 0 1 -1.1794 2.6586049892219297 17.571783443317155 5.831810705101426 1 0 0
1805 0 2 0.5897 5.062499144799635 17.437469598311612 7.542716302606153 0 0 1
1804 0 1 -1.1794 4.395787894526132 17.682660940631276 8.192645358787189 0 0 1
1105 0 1 -1.1794 7.12805236386928 18.870890474450434 6.282130683120886 0 -1 1
1314 0 2 0.5897 10.749202010112699 16.334138424672993 4.831717353201949 0 -1 1
59 0 2 0.5897 11.329827766015786 19.91314730967733 6.1936100102335425 0 -1 0
1107 0 2 0.5897 7.611802085512979 18.66725721610185 7.095519443075702 0 -1 1
785 0 2 0.5897 8.832001558583269 16.520550175037947 5.252351041835153 0 0 0
1539 0 2 0.5897 10.03606869381145 18.128055780087305 6.029722546857502 0 0 0
1537 0 1 -1.1794 10.026791827723843 17.240545448976793 6.293041599089172 0 0 0
529 0 1 -1.1794 8.613462589560095 19.393202781776687 4.28256566250237 0 -1 -1
1106 0 2 0.5897 7.747479466383625 18.984202581591116 5.527509647104956 0 -1 1
1538 0 2 0.5897 10.652417660699658 17.18245736775443 7.011908736489237 0 0 0
1796 0 2 0.5897 9.68301035891074 19.3075546461315 7.7910741412676305 0 -1 1
60 0 2 0.5897 11.764737648325001 19.377777744482376 4.7645651489628325 0 -1 0
58 0 1 -1.1794 12.034779887331041 19.406363724867788 5.703395789057343 0 -1 0
30 0 2 0.5897 5.114939657548097 1.1273295531689431 8.684226231123835 0 0 0
221 0 2 0.5897 1.2354840900030513 0.6646115090417697 9.705731046063674 1 0 0
835 0 1 -1.1794 4.007441047423288 2.5729317676420758 8.565479745714018 0 1 0
1898 0 2 0.5897 1.9490327221286143 2.8228094557181183 8.700006573956385 0 0 -1
837 0 2 0.5897 4.457302206275157 2.85697282677682 9.37475479926863 0 1 0
1582 0 1 -1.1794 5.509424597695464 2.9579729470672893 10.80932081123436 0 0 0
357 0 2 0.5897 3.4616016768372155 1.7775580990862354 12.28647233743173 0 1 0
1584 0 2 0.5897 6.395808389193674 2.69846014718199 10.481339121724131 0 0 0
28 0 1 -1.1794 5.739049119022894 0.36178692766040316 8.636801475433927 0 0 0
1078 0 1 -1.1794 3.9780040464008875 0.4059349645600185 11.37858777360549 0 -1 -1
356 0 2 0.5897 3.091586955679557 3.3347561988037167 12.37479415324626 0 1 0
1079 0 2 0.5897 4.719788030274235 0.8815997887275696 10.981781570235517 0 -1 -1
1583 0 2 0.5897 5.607251463780723 3.842985317525157 11.320408135475517 0 0 0
220 0 1 -1.1794 2.0192497344631217 0.10964264199632195 9.585450427890683 1 0 0
1080 0 2 0.5897 3.2901315990165534 0.410995207831746 10.669308113444123 0 -1 -1
1897 0 1 -1.1794 1.0212255131443764 2.8341279405626003 8.853925094249973 0 0 -1
1899 0 2 0.5897 0.9204883587839328 3.5154891104451313 9.484553714324885 0 0 -1
1853 0 2 0.5897 8.200352710090653 2.2418623754905207 9.25799667306285 0 1 1
1852 0 1 -1.1794 8.387444443130123 2.506381735077898 10.171902342976434 0 1 1
1505 0 2 0.5897 10.294308471467195 1.4725417884628107 10.50941639305536 1 0 0
1504 0 1 -1.1794 10.949978072285655 1.2665812591034618 9.863081423007033 1 0 0
1854 0 2 0.5897 8.432048553804744 3.4560364005741073 10.173504433043389 0 1 1
48 0 2 0.5897 10.740585088958168 2.7717464469509068 8.65100434173875 0 0 0
1506 0 2 0.5897 11.405546802415806 0.47184276282849097 10.086275234347793 1 0 0
339 0 2 0.5897 11.66172603894578 3.836238206227189 12.462677343658267 0 0 -1
1605 0 2 0.5897 7.357164289760981 0.19133650496294752 11.20101318221315 0 2 0
779 0 2 0.5897 1.6166960993431294 5.821863201057001 9.353341761386169 0 0 0
523 0 1 -1.1794 2.4618526220160453 4.974608371283999 12.046802446602268 0 0 -1
120 0 2 0.5897 4.803137013437902 5.982013137698567 9.385294810150054 0 0 -1
119 0 2 0.5897 3.7820446558393046 5.511688006589584 10.58029563211922 0 0 -1
118 0 1 -1.1794 3.9212004149282444 6.139242214701313 9.829622284953308 0 0 -1
524 0 2 0.5897 1.649059066784726 4.994777237254528 11.479133936891726 0 0 -1
789 0 2 0.5897 3.2214370987653433 7.526077977810664 10.672028293615332 0 0 0
1512 0 2 0.5897 6.503335368460864 7.107070282638512 12.034135167879082 0 1 0
505 0 1 -1.1794 6.431264791736816 5.681750209325678 8.83297784037262 0 1 0
1510 0 1 -1.1794 6.38052348346233 7.571583002581849 11.182972872472362 1 1 0
1511 0 2 0.5897 5.577886396814785 7.055502562188773 10.840003029010765 1 1 0
1346 0 2 0.5897 11.726461736415873 6.5484222334932385 10.484174789661502 0 -1 0
1345 0 1 -1.1794 11.816683832131663 6.929428726362243 11.41524496530705 0 -1 0
338 0 2 0.5897 11.40927596792424 5.390991580130494 12.39553114827975 0 0 -1
298 0 1 -1.1794 11.882053509496487 5.698396047669358 8.94219697204273 0 0 0
507 0 2 0.5897 6.903086780737236 5.534575348803856 9.651797428246649 0 1 0
3 0 2 0.5897 8.378620140587191 5.506884056936518 11.57251413391502 0 1 0
1 0 1 -1.1794 8.345308813526817 5.30535230452049 10.632179079793627 0 1 0
2 0 2 0.5897 8.823406249037374 5.974859319855285 10.16848684469277 0 1 0
590 0 2 0.5897 10.47063672403428 7.569452754706944 12.141540987156537 0 0 1
788 0 2 0.5897 3.748684912331927 8.02594609479234 11.887828471691153 1 0 0
1993 0 1 -1.1794 0.8994736521937706 9.822290291748187 12.159507103466145 1 0 0
509 0 2 0.5897 1.5970556234155613 9.24376315306845 9.125489111807857 0 -1 0
787 0 1 -1.1794 3.1573624321156952 8.360636474503998 11.193937820652542 0 0 0
370 0 1 -1.1794 5.602304096103466 10.481021148925088 8.39864333412567 0 0 1
1034 0 2 0.5897 4.336425598077253 11.3325154752788 11.695474516346355 0 0 -1
1578 0 2 0.5897 4.338257113853771 10.94817160005067 9.613771712859835 0 0 0
1576 0 1 -1.1794 3.5800601565066636 11.029779114721002 10.233474502018955 0 0 0
1577 0 2 0.5897 3.2852052502939557 10.10571017421445 10.351817458228949 0 0 0
1865 0 2 0.5897 1.8106746490814996 11.736339927253738 10.351393148326341 0 1 0
1995 0 2 0.5897 1.5611482125503762 9.139487776367428 11.897677917450535 1 0 0
254 0 2 0.5897 6.36310040288587 11.923814340656914 9.488998489792285 0 -1 -1
591 0 2 0.5897 9.222593475528582 8.561247798195968 12.105012129365397 0 0 1
280 0 1 -1.1794 8.779112755818385 8.210375105284864 9.572483323279197 0 0 0
281 0 2 0.5897 8.021681376054449 8.815389812651253 9.429152108647196 0 0 0
282 0 2 0.5897 9.458824334649876 8.873587395460605 9.865336873740375 0 0 1
1293 0 2 0.5897 7.066782603756668 9.233568719252697 11.538444131972755 0 0 1
1292 0 2 0.5897 7.206431874076396 10.79719580197363 11.434446369246826 0 0 1
266 0 2 0.5897 10.815857328181966 10.118299067828572 11.300188120754855 0 0 1
265 0 1 -1.1794 10.684549740099438 9.890723412415124 10.34295805494839 0 0 1
267 0 2 0.5897 11.54511558921519 9.767643943005345 9.95073562018319 0 0 1
1291 0 1 -1.1794 7.491090301967197 10.006237113150634 11.892247695507425 0 0 1
1892 0 2 0.5897 11.507340950858273 11.694381367980727 12.37230607388961 0 -1 -1
1388 0 2 0.5897 9.710963113783974 11.427512474946724 9.76747204393841 0 0 -1
1864 0 1 -1.1794 0.9097333871279815 12.059041888281776 10.271923788114176 0 1 0
613 0 1 -1.1794 3.242405546809281 14.209123526977868 8.406946525762852 0 0 0
805 0 1 -1.1794 4.965911035773249 14.695541154581338 10.300508054470196 0 1 0
807 0 2 0.5897 4.377763129934152 14.911907703706163 9.533634198020756 0 1 0
806 0 2 0.5897 5.451246061011897 15.534147755430418 10.41036294278322 0 1 0
255 0 2 0.5897 6.306238387610644 13.162683282724522 10.424442672180836 0 -1 -1
2015 0 2 0.5897 4.436791307603283 14.366010739534437 11.923053731813614 1 0 0
498 0 2 0.5897 0.9234332657105881 14.31105624144932 10.075205516803859 1 0 -1
516 0 2 0.5897 9.978523553793138 13.242594532234744 8.348081860547298 0 0 -1
253 0 1 -1.1794 6.82827338635899 12.455041549025843 10.089502597224579 0 -1 -1
345 0 2 0.5897 11.124901451950524 12.91337167560908 10.603925193330703 0 0 0
1389 0 2 0.5897 8.590706526677689 12.546970379669657 9.678494836422548 0 0 -1
1387 0 1 -1.1794 9.527647917420994 12.368148247494435 9.629382515693681 0 0 -1
1492 0 1 -1.1794 8.468307228456343 15.34001824250555 11.021832939120069 1 0 0
1331 0 2 0.5897 8.071354180907155 15.53894037853981 9.311223385705723 0 -2 1
343 0 1 -1.1794 11.741157553580036 13.147376260862425 11.267373730504717 0 0 0
1493 0 2 0.5897 8.367512207617608 14.610742345279828 11.628995575162227 1 0 0
1494 0 2 0.5897 7.931728550796536 16.01665386826278 11.439059901505324 1 0 0
2103 0 2 0.5897 1.9371506372701184 16.183817443942587 11.476255068872971 0 -1 0
29 0 2 0.5897 5.257429615102084 19.600566205717968 8.694862966587948 0 -1 0
1269 0 2 0.5897 1.5867842211426928 16.816933573702876 9.339480611112757 0 0 -1
1268 0 2 0.5897 2.5643016376438554 17.44695691562003 8.36937821379202 0 0 -1
1806 0 2 0.5897 4.6482803654324165 17.43577013953146 9.078702012870844 0 0 1
553 0 1 -1.1794 5.093720933403033 17.39576115266942 10.993387962096117 0 0 1
554 0 2 0.5897 4.236284828360272 17.784945092305307 11.282021042767692 0 0 1
222 0 2 0.5897 1.6666938312858866 19.294401837993064 9.342769622457181 1 -1 0
555 0 2 0.5897 5.889578171119923 17.873601558043013 11.42805641705705 0 0 1
1267 0 1 -1.1794 1.676558894003887 17.578326577319174 8.732361736214934 0 0 -1
2102 0 2 0.5897 1.681711394935325 17.40215589257692 12.416367875842907 0 -1 0
2101 0 1 -1.1794 2.3123653708389913 16.985057668167983 11.792220619959227 0 -1 0
353 0 2 0.5897 10.028836321088274 16.310455409039438 11.185239893065415 0 0 0
2048 0 2 0.5897 8.531997593333108 17.324641314825772 8.641088639851459 0 0 0
1604 0 2 0.5897 8.453458769152874 19.27388166279168 11.380617687869035 0 1 0
352 0 1 -1.1794 10.780628833893992 16.900326519623103 11.237299401832013 0 0 0
1603 0 1 -1.1794 7.578312486918173 19.34500088740938 10.96940549301761 0 1 0
354 0 2 0.5897 10.894392421161642 17.251103072115768 10.304307996980615 0 0 0
2047 0 1 -1.1794 8.526869734128482 18.315524130864954 8.671371867031997 0 0 0
2049 0 2 0.5897 7.8536479676636075 18.66081621740319 9.268083962975318 0 0 0
774 0 2 0.5897 12.069757583341262 18.006905569230305 8.71819689084272 0 -1 -1
772 0 1 -1.1794 11.678619611339132 17.128971957847927 8.460000176298227 0 -1 -1
1309 0 1 -1.1794 10.095611266644786 19.343016736424754 12.049593544112609 0 0 0
1310 0 2 0.5897 10.457248574278633 18.42938154531685 11.99232334911939 0 0 0
1484 0 2 0.5897 1.343485152548658 1.6030203257840736 13.117437923006861 1 1 0
355 0 1 -1.1794 3.172681191179834 2.4709577285035165 12.864430530090136 0 1 0
1089 0 2 0.5897 5.143994540393233 0.8419949550085671 15.44602927246506 0 0 0
225 0 2 0.5897 2.1856476541368455 2.8396353343801515 14.733667160728086 1 0 -1
223 0 1 -1.1794 2.005186507645328 2.78607075772526 15.69320994144712 1 0 -1
224 0 2 0.5897 1.8128749321945623 1.859901201955363 15.867079901490152 1 0 -1
1087 0 1 -1.1794 4.967338317357982 0.023920006436252805 15.88904707891143 0 0 0
2104 0 1 -1.1794 5.3375737112358985 2.3252184488378385 14.385247223061228 0 1 0
2105 0 2 0.5897 4.6655613388130295 2.7206524008355206 13.834421880465712 0 1 0
2106 0 2 0.5897 5.6512904566646 3.066745396468204 14.953039069545254 0 2 0
810 0 2 0.5897 6.453548585244825 1.4848190042741318 13.410137299829866 0 1 -1
1758 0 2 0.5897 11.474728231611417 0.8515755598294266 13.156795791186436 1 -1 1
808 0 1 -1.1794 7.263791416174456 1.2501049648974263 12.952431231274304 0 1 -1
1015 0 1 -1.1794 10.327365763760861 3.2802058699660743 15.439307385431468 0 -1 -1
809 0 2 0.5897 7.578134809392359 2.1376084510960887 12.632406384561335 0 1 -1
1756 0 1 -1.1794 11.766660131226299 1.15945677695868 14.006248920220552 1 -1 1
82 0 1 -1.1794 8.32455405990709 3.731287464872717 12.98755916961431 0 0 0
1017 0 2 0.5897 10.6530184748506 2.466172486096917 14.98729481547005 0 -1 -1
5 0 2 0.5897 8.070677051844648 0.07011705574188877 13.994645319506674 0 0 0
1016 0 2 0.5897 9.750565787664387 2.936897026551884 16.110244170269333 0 -1 -1
2036 0 2 0.5897 7.617954674856924 3.7338718877182804 16.632683259667832 0 1 0
83 0 2 0.5897 9.292229557981472 4.005537554401758 12.809998665675442 0 0 0
84 0 2 0.5897 8.274471239197275 3.670704370219985 13.971437801075464 0 0 0
314 0 2 0.5897 11.055633773685972 0.21015621421802647 15.694376909594212 0 1 0
313 0 1 -1.1794 10.226859720309445 0.020000357064896782 16.116640622743752 0 1 0
525 0 2 0.5897 2.227574342767392 5.2793324005261635 12.931159104191345 0 0 -1
1624 0 1 -1.1794 5.521718141505206 4.868081441180303 12.67772654743273 0 1 0
1626 0 2 0.5897 6.3559900526897275 5.249873539409213 12.949995503345775 0 1 0
1022 0 2 0.5897 1.945688168793004 5.308111954271895 15.295966085398495 0 1 0
1625 0 2 0.5897 4.845211389114159 5.498356168124111 12.983549468637912 0 1 0