LAMMPS data file via write_data, version 23 Jun 2022, timestep = 7532000

2268 atoms
2 atom types

0.6338519389794826 46.816847061017626 xlo xhi
0 20.047001 ylo yhi
0 20.857 zlo zhi

Masses

1 1.008
2 15.999

Atoms # full

1555 0 1 -1.1794 3.998066413410381 2.213360391700347 2.316271807979962 0 -1 1
1557 0 2 0.5897 3.410603500367081 2.2327184008556884 1.5510008891043507 0 -1 1
1556 0 2 0.5897 4.687540208053467 1.56574231638537 2.1591251082007243 0 -1 1
838 0 1 -1.1794 1.9998290434334618 2.5801876537129025 0.41419714531114854 0 0 1
839 0 2 0.5897 1.8775292962935552 1.5957729776952667 0.2630309519241577 0 0 1
840 0 2 0.5897 1.3702642273072096 2.8027074712157267 1.1226264020182912 0 0 1
1043 0 2 0.5897 4.058905940041198 3.341118555860775 3.5665092345058858 0 0 1
1117 0 1 -1.1794 6.078173143021216 0.34293714190427443 2.026316914709372 0 1 0
1608 0 2 0.5897 0.9451667707221603 2.58021395334135 3.2641888620252177 0 1 1
1119 0 2 0.5897 6.643390082630406 0.7468671932902149 2.7773558892792707 0 1 0
1118 0 2 0.5897 6.4370365402228655 0.6097283081259316 1.1498673572816833 0 1 0
230 0 2 0.5897 11.650499293828194 2.3351630094613145 1.8648833319997822 1 0 0
229 0 1 -1.1794 11.546836465460565 3.05106526926122 2.474210213107591 1 0 0
1140 0 2 0.5897 6.88106433770683 3.5947504683110516 1.367682980786945 0 1 0
799 0 1 -1.1794 10.98222625610219 0.5196926906517274 1.3650359518522759 0 0 0
2064 0 2 0.5897 7.172068961740194 2.7404462490866806 3.399149582647666 0 2 1
2062 0 1 -1.1794 7.147531240282633 1.9140061178460852 3.877542755239079 0 2 1
801 0 2 0.5897 10.034510955253056 0.528678633309516 1.2380500618374009 0 1 0
1871 0 2 0.5897 10.997558259209592 0.36915329207388486 3.2759145958983797 0 -1 0
1527 0 2 0.5897 10.699739108058155 3.19598342354989 4.064527258387552 0 0 1
1998 0 2 0.5897 4.411548467364937 4.471980772896642 1.1382964321538827 1 0 1
1997 0 2 0.5897 5.4677233782664425 5.185006045867271 1.6043458191852673 1 0 1
1996 0 1 -1.1794 4.562395701813764 5.3519604153391445 1.477721467368496 1 0 1
537 0 2 0.5897 3.4825935405081676 6.9875804221860465 0.8416902223524143 0 0 0
535 0 1 -1.1794 2.9453962495145967 7.770577782003281 0.8228487251467775 0 0 0
536 0 2 0.5897 2.0529579798280313 7.470702659804099 0.6208286788988377 0 0 0
1053 0 2 0.5897 5.985003150142931 7.781731559574897 1.6370559347720697 0 0 0
1052 0 2 0.5897 5.1263816005366785 7.744298328512908 2.9427938248712096 0 0 0
1494 0 2 0.5897 4.837972443010803 5.442105742384368 4.101592155461877 1 1 0
1138 0 1 -1.1794 7.086494069758053 4.207426318711926 2.094663389710861 0 1 0
1283 0 2 0.5897 10.482121410996918 4.159411201607142 1.5142301623425665 0 0 1
1139 0 2 0.5897 8.061364027556815 4.458519688577491 1.9868643329516336 0 1 0
1282 0 1 -1.1794 9.866041984637063 4.869640717191881 1.4494666397641844 0 0 1
1284 0 2 0.5897 10.2318207380828 5.570579757141759 2.0147114497438614 0 0 1
82 0 1 -1.1794 8.090059153549651 7.2817591476401855 3.4086839160596494 0 1 1
529 0 1 -1.1794 10.674615363172354 6.91364161829091 3.5468984859986343 0 1 0
83 0 2 0.5897 9.048419974342442 7.139562081519469 3.5375253954159263 0 1 1
84 0 2 0.5897 7.470895759211376 6.524259003703785 3.4418689489788528 0 1 1
530 0 2 0.5897 11.140793330661424 7.653775838629142 3.1111193425456003 0 1 1
98 0 2 0.5897 3.2320073262872917 9.14339905500482 2.1218295629624833 0 1 -1
97 0 1 -1.1794 2.967172891005285 9.9884086703607 2.512150581438664 0 1 -1
1051 0 1 -1.1794 5.444368312296135 8.335324323876547 2.230177685888329 0 0 0
99 0 2 0.5897 3.3497731300127582 9.979342203404553 3.4107514202629576 0 1 -1
2114 0 2 0.5897 3.314226508826475 11.294720066750381 1.3857712836825336 0 -3 -2
2113 0 1 -1.1794 3.343736009796627 11.900191026784778 0.5931808225455113 0 -3 -2
498 0 2 0.5897 1.190651559401259 10.03109493343571 2.871797565006199 1 1 0
2115 0 2 0.5897 4.297311507808336 11.970894777192685 0.3787267138611694 0 -3 -2
582 0 2 0.5897 5.7658906867322814 10.054477256809122 1.99220837685694 0 2 0
580 0 1 -1.1794 6.110401830156945 10.91480729195529 1.6947287502293988 0 2 0
725 0 2 0.5897 6.145553680812778 11.49116098356003 0.2024872401466743 1 1 0
639 0 2 0.5897 8.133928025059001 8.911243626964733 2.347257591718314 0 -1 0
637 0 1 -1.1794 8.34950172992547 9.727164494828141 1.8687229740999258 0 -1 0
638 0 2 0.5897 9.150194452640774 9.4060584128528 1.4583867857304347 0 -1 0
581 0 2 0.5897 7.041778748235523 10.767335311855216 1.8550887205577613 0 2 0
802 0 1 -1.1794 10.980459236157087 8.707176863356306 1.3590539369551287 0 -1 1
484 0 1 -1.1794 10.127961555208062 11.307236792394852 3.241519423514713 1 0 0
485 0 2 0.5897 9.34342892998723 10.746082277191041 2.8911779810655482 1 0 0
803 0 2 0.5897 10.782571206424436 8.238010081607515 0.5205562724784314 0 -1 1
804 0 2 0.5897 11.68790670549309 9.281833512638586 1.1563858573264012 0 -1 1
1023 0 2 0.5897 12.067976523622734 10.596205864664041 3.7840587328939774 0 2 0
1767 0 2 0.5897 6.36334315417332 12.05986455924539 3.793913954871079 0 -3 -1
1808 0 2 0.5897 5.138118434315514 12.713653810702752 2.3106178502325005 0 0 -1
1807 0 1 -1.1794 5.604445045396426 13.365982453045607 2.8876301063571073 0 0 -1
1809 0 2 0.5897 6.291358059787552 13.624914367182162 2.2775507310171865 0 0 -1
785 0 2 0.5897 4.92547477228593 15.05927753221607 2.8488654272461225 0 1 1
2093 0 2 0.5897 1.9190423716141363 14.828521902866926 1.6467582763996185 0 -1 1
786 0 2 0.5897 3.637025250496077 15.838483300493682 2.7045171775737673 0 1 1
2092 0 1 -1.1794 1.807140957242949 14.976767775632776 2.579676530125401 0 -1 1
784 0 1 -1.1794 4.547324141092243 15.984843191509004 2.9538186345604567 0 1 1
2094 0 2 0.5897 1.2336926314961962 15.773393896488223 2.679158508529211 0 -1 1
2205 0 2 0.5897 1.3116209647169161 13.412924987810719 3.514832597960008 1 1 1
486 0 2 0.5897 10.167163032961586 12.050413247031168 2.668703790071226 1 0 0
2041 0 1 -1.1794 10.368265947846067 13.440638064009113 1.1542153017947658 0 -1 1
2042 0 2 0.5897 10.906871497296548 14.20081554016116 0.7834506454217464 0 -1 1
2043 0 2 0.5897 9.530865240566689 13.810909213329676 1.3472481071057876 0 -1 1
852 0 2 0.5897 7.339598000086463 14.3082265712812 0.6938190063025693 0 1 0
850 0 1 -1.1794 7.668932470001722 14.165478952414473 1.6017866409817307 0 0 0
851 0 2 0.5897 7.738865106530409 15.034341238993974 2.034397317419626 0 0 0
731 0 2 0.5897 6.124335173966035 18.675355129050686 1.972374935110525 1 1 0
732 0 2 0.5897 5.512817197796341 17.190374906258626 2.0260497674622715 1 1 0
730 0 1 -1.1794 6.095297748975903 17.761573182424204 1.5715379912875094 1 1 0
246 0 2 0.5897 3.6217947671672106 17.93867033693189 2.3893962518425247 1 1 1
244 0 1 -1.1794 2.716512393739284 17.87599507234381 2.0164390526592064 1 0 1
245 0 2 0.5897 2.774434149262872 17.287001005274345 1.2760470541913802 1 0 1
888 0 2 0.5897 1.659026578564069 18.183124750677383 3.5803028293902406 0 1 -1
2110 0 1 -1.1794 1.5506971825739728 19.849755980503325 0.1722150688898489 0 -1 1
2111 0 2 0.5897 1.4114846481844592 19.339489226315848 0.9781048935117234 0 -1 1
800 0 2 0.5897 11.301295132728988 19.600861541337217 1.1999300112438784 0 -1 0
109 0 1 -1.1794 7.868588510042935 16.368318598323224 3.2147358135107487 0 -1 0
1551 0 2 0.5897 10.904561857061607 16.801404833923783 3.924508553005356 0 -2 -1
111 0 2 0.5897 7.425624818015994 17.013546297241398 2.671996685997431 0 -1 -1
110 0 2 0.5897 8.776631007444077 16.732610908502444 3.2717923421982533 0 -1 0
1535 0 2 0.5897 11.08341084972263 17.51100284794262 0.7698123917841037 0 0 0
1870 0 1 -1.1794 10.867007865441838 19.79081365921414 4.033880962510667 0 -2 0
1550 0 2 0.5897 10.54954415381991 18.264549058449 3.5746066958431038 0 -2 0
1549 0 1 -1.1794 10.315331849079962 17.33622623274369 3.3644725728470757 0 -2 0
1534 0 1 -1.1794 11.830145362241725 18.11666126814325 0.8797320747964024 0 0 0
2080 0 1 -1.1794 10.002121504622105 16.242186017964627 0.042544685587957376 0 0 1
2009 0 2 0.5897 2.7822850523460407 1.2850636936611932 4.203951033727999 1 1 1
2008 0 1 -1.1794 1.8577134395042463 1.399274543182135 4.204248359896577 1 1 1
2010 0 2 0.5897 1.4613607641439255 0.48057740944390065 4.239665554817121 0 1 1
1331 0 2 0.5897 4.859863385512262 0.26523114905586087 4.622547101866653 0 -2 1
1330 0 1 -1.1794 4.47993322628704 1.0816692678110342 4.9907884794217425 0 -2 1
1332 0 2 0.5897 4.041516696695799 0.9758245506197329 5.852201872655884 0 -2 1
2063 0 2 0.5897 6.310877691178527 1.9595042171528536 4.413564509820528 0 2 1
45 0 2 0.5897 6.201479812189192 3.2608761969021995 7.5517714127829425 0 0 0
744 0 2 0.5897 0.7899950836941753 2.5142391603111536 5.336003485646084 1 1 0
17 0 2 0.5897 3.0437526742303405 1.5695846229617938 7.81008084249742 0 1 1
16 0 1 -1.1794 3.6835738454861113 0.8164117507884022 7.820216337964367 0 1 1
1044 0 2 0.5897 4.186476447928824 3.8034045559199345 5.074654053207185 0 0 1
1484 0 2 0.5897 3.513025747100825 3.78660501618422 7.291759268174912 1 2 0
1483 0 1 -1.1794 4.36216590939575 3.927709792106731 6.874644869237378 1 2 0
2051 0 2 0.5897 1.2052416772574517 3.223388865652188 7.408599561046434 0 0 -1
743 0 2 0.5897 0.9270326315745228 4.004204637644072 5.411294112388283 1 1 0
2050 0 1 -1.1794 1.9676119574179034 3.088644908024094 8.024915380770823 0 0 -1
495 0 2 0.5897 7.013889804874207 1.2498270780761576 8.172278741317289 1 1 0
1059 0 2 0.5897 8.204090837263024 1.3141518799421452 5.086513486508508 0 1 -1
1058 0 2 0.5897 9.214383831036102 1.4228942272178247 6.22661508449137 0 1 -1
1057 0 1 -1.1794 8.9042388358963 0.8207197879015092 5.489657956316707 0 1 -1
1525 0 1 -1.1794 10.422969613972729 3.2954429140168267 4.986387097518537 0 0 1
43 0 1 -1.1794 7.054223017544363 2.9049493252669274 7.280826854565814 0 0 0
62 0 2 0.5897 11.639712093774534 2.355345520361987 6.150988317023118 0 1 -1
1267 0 1 -1.1794 9.757593180747344 1.9656080386824573 7.960053619164461 0 0 -1
1269 0 2 0.5897 9.92297114619833 2.831163323829012 8.332434109274493 0 0 -1
63 0 2 0.5897 12.160548474716435 1.9202086482140048 7.506138142712341 0 1 -1
1526 0 2 0.5897 9.48473006839993 3.5101631700405527 4.917182643742075 0 0 1
1872 0 2 0.5897 10.175663495312257 0.20853568602353725 4.495485856543703 0 -1 0
44 0 2 0.5897 7.639624735571915 3.1798118445646493 8.014504077996781 0 0 0
1492 0 1 -1.1794 5.55117520226857 6.060850808392513 4.345549749645077 1 1 0
1042 0 1 -1.1794 3.856756850535924 4.096002365223066 4.183539218671233 0 0 1
1493 0 2 0.5897 5.360202572425985 6.478476317766684 5.225150080478365 1 1 0
1852 0 1 -1.1794 1.6639267408110503 5.569186177740723 4.838462918702688 0 1 2
1854 0 2 0.5897 2.518499236660558 5.190881704557078 4.621168228051657 0 1 2
1126 0 1 -1.1794 5.045490443004298 7.014745872284513 6.85446694601609 0 2 1
1485 0 2 0.5897 4.7003079267198205 4.787206255097334 7.118252319302764 1 2 0
1128 0 2 0.5897 5.789826362453074 7.694674122601131 6.961533403813385 0 2 1
1853 0 2 0.5897 1.8591856113443104 6.437270312522007 5.224326423330367 0 1 2
1127 0 2 0.5897 4.214225858396569 7.556142946873623 6.768919684524705 0 2 1
1559 0 2 0.5897 1.6910634091941115 7.748829498488307 7.303848477424844 0 2 1
531 0 2 0.5897 11.286357133300962 6.719006068492057 4.252275868514609 0 1 1
1277 0 2 0.5897 11.441453406545728 5.059517386223914 5.67673275887879 0 1 1
293 0 2 0.5897 7.683089565532306 4.203569321047657 5.90215207240539 0 3 2
294 0 2 0.5897 7.072559137589321 5.0300274264883225 4.796644107962179 0 3 1
292 0 1 -1.1794 7.975613201924519 4.807643386558842 5.219310929964215 0 3 2
309 0 2 0.5897 8.509760914863737 6.188566428373829 6.291338593798823 0 -1 0
307 0 1 -1.1794 9.101687029708785 6.903519740741912 6.671930236231101 0 -1 0
308 0 2 0.5897 9.505900429037238 7.2959771135631435 5.906417434900676 0 -1 0
510 0 2 0.5897 9.9978471722778 5.563952195302656 7.542941171574703 0 0 -1
508 0 1 -1.1794 10.37098259325406 4.895629226997767 8.126151720814567 0 0 -1
1276 0 1 -1.1794 11.967781725107427 5.859352649628598 5.73976032907184 0 1 1
1041 0 2 0.5897 3.4107497427211486 10.09958834611829 5.773979804164418 1 -1 1
1039 0 1 -1.1794 3.9304704250042164 9.471917589821516 5.254422592569655 0 -1 1
1040 0 2 0.5897 4.811943494079345 9.801881180337512 5.299464742762461 0 -1 1
1560 0 2 0.5897 2.6956199299037125 8.914862721407099 7.093161550306614 0 2 1
1558 0 1 -1.1794 2.5958654906719403 8.039750673999235 7.501832025899735 0 2 1
2105 0 2 0.5897 5.520848949343599 11.027951952622361 7.87198417262702 0 1 2
2104 0 1 -1.1794 4.7297979072788 11.513962865659547 7.525787288033689 0 1 2
2106 0 2 0.5897 3.962515339290734 11.224195194836694 8.036709456085529 0 2 2
1501 0 1 -1.1794 2.0652529601636673 10.944733268335089 6.8363465214592765 1 1 0
1503 0 2 0.5897 2.1721826614269633 11.894414295314965 6.713750874500961 1 1 0
1502 0 2 0.5897 1.089555850225475 10.894064688687584 6.892950422543758 1 1 0
1765 0 1 -1.1794 6.594625439232809 11.648835678138104 4.653260975902976 0 -3 -1
767 0 2 0.5897 7.438964435616899 8.646732550884213 4.832897985458819 0 0 0
1316 0 2 0.5897 10.552017908357795 9.623562724659932 4.888061100511651 0 -1 0
768 0 2 0.5897 6.8576280459328585 10.055563870490037 4.902624847292874 0 0 0
766 0 1 -1.1794 6.778482310389621 9.186527700115207 5.32460111358437 0 0 0
1875 0 2 0.5897 7.288762199236148 9.891841664476475 7.026924545501132 0 0 -1
1315 0 1 -1.1794 11.187993218511497 8.95375223015061 5.05320483546237 0 0 0
1317 0 2 0.5897 11.629539138490644 9.203564195044011 5.897743828969196 0 0 0
1873 0 1 -1.1794 7.261915380909627 10.13343433243114 7.989422973924278 0 0 -1
1748 0 2 0.5897 8.574380452023298 11.141008109442131 7.972785983542579 1 -1 1
1747 0 1 -1.1794 9.350759464812494 11.662302705532491 8.13666315295908 1 -1 1
381 0 2 0.5897 9.44815320382946 8.134724866301621 7.935919462478592 0 0 0
314 0 2 0.5897 0.7625335643992599 15.71307386521089 6.494542519082903 0 0 0
2204 0 2 0.5897 2.108008486206358 12.789090227501207 4.736561912673237 1 1 1
225 0 2 0.5897 4.1272197068834995 12.963302103112255 4.592580001624558 1 0 0
223 0 1 -1.1794 3.9055491709820065 12.942530206260697 5.501029316020684 1 0 0
224 0 2 0.5897 4.50100775798209 12.299622045160394 5.922213662428304 1 0 0
555 0 2 0.5897 5.957210782876965 13.013193284853445 7.1848974592891395 0 -1 1
554 0 2 0.5897 5.7809962413636296 14.532626371004126 7.471389988878065 0 -1 1
1554 0 2 0.5897 2.3654539214623043 15.237750294482643 4.6501074424675695 0 -1 2
1887 0 2 0.5897 3.0796119750429343 13.877541606993795 7.354917561183524 0 0 0
1885 0 1 -1.1794 2.723563098716392 14.013629934116492 8.236359071216723 0 0 0
1552 0 1 -1.1794 2.353412492634824 15.567851475113176 5.5156365987118585 0 -1 2
1553 0 2 0.5897 3.200706810698246 15.56759952871083 5.8698110812774305 0 -1 2
106 0 1 -1.1794 4.702151740711331 15.759343313882388 7.155523273601635 0 0 0
2203 0 1 -1.1794 1.2940809314008264 12.82876215108923 4.266677826408796 1 1 1
107 0 2 0.5897 4.080573213736171 15.730234592518073 7.912449033342791 0 0 0
1766 0 2 0.5897 7.137880644124454 12.276692288437383 5.100929867592554 0 -3 -1
553 0 1 -1.1794 6.425104747616522 13.786993263858513 7.490630309352816 0 -1 1
31 0 1 -1.1794 11.617281095085806 15.52475667120708 5.1364617245398225 0 1 1
885 0 2 0.5897 7.823806181470842 15.338660274148927 4.748512172796967 0 1 1
2075 0 2 0.5897 10.299580249353795 12.279148588682324 4.581581153139455 0 2 0
884 0 2 0.5897 7.505666391021939 14.42197842074665 5.952818212976935 0 1 1
32 0 2 0.5897 11.413397239816739 14.620375554629529 4.856286465205 0 1 1
883 0 1 -1.1794 8.01339485672538 14.460670889129227 5.125803147589515 0 1 1
1749 0 2 0.5897 9.55855716309373 12.084917337624228 7.297100870007341 1 -1 1
2074 0 1 -1.1794 10.14310518171534 12.762544622191474 5.458117480756476 0 2 0
2076 0 2 0.5897 9.429543387091861 13.371242757668405 5.309875727006843 0 2 0
18 0 2 0.5897 3.230184968740569 19.990596575272665 7.67626081611441 0 0 1
1498 0 1 -1.1794 2.5582266048030835 18.320795469281542 6.723175477455187 1 -1 1
861 0 2 0.5897 4.900656506643671 17.31087814717902 4.337059019660923 0 2 -1
886 0 1 -1.1794 1.2291031978799039 18.74997024776028 4.2292467134853915 0 1 -1
1500 0 2 0.5897 3.3523079696976423 18.168424736158038 6.112348235661392 1 -1 1
859 0 1 -1.1794 5.11347084657551 18.2042441286508 4.6631324474837035 0 2 -1
860 0 2 0.5897 6.0694629365822665 18.175802157776502 4.8665223702215155 0 2 -1
108 0 2 0.5897 5.104210126674191 16.645033617994244 7.234946403979575 0 0 0
887 0 2 0.5897 1.3991605623881642 18.316147317431344 5.033098308722932 0 1 -1
1499 0 2 0.5897 2.5257712662748713 17.5813839399004 7.3972275270691235 1 -1 1
647 0 2 0.5897 6.09587361127948 18.907762642872054 7.784073866525919 0 1 1
646 0 1 -1.1794 6.180719009500913 17.918415148345165 7.720497657678162 0 1 0
1358 0 2 0.5897 10.531138724943885 16.447650487726573 6.518703488158368 0 -2 -1
1359 0 2 0.5897 9.462097021679421 16.082294116289123 7.575933625369742 0 -2 -1
1801 0 1 -1.1794 7.699225300712807 18.335078553839264 5.599578425494877 0 0 0
1802 0 2 0.5897 8.115540489573828 19.20756042162212 5.643295646756145 0 0 0
1803 0 2 0.5897 8.506958945869794 17.785317957862542 5.920877836122865 0 0 0
1357 0 1 -1.1794 9.860700698403328 16.845415626149705 7.120906333421032 0 -2 -1
648 0 2 0.5897 6.844489665311268 17.919498245221405 7.035784420820142 0 1 0
2267 0 2 0.5897 4.768310846948796 2.660360172560042 10.777218236770326 1 1 1
2266 0 1 -1.1794 5.407972797077803 3.3961075202364253 10.933643307056698 1 1 1
1641 0 2 0.5897 4.1732634045632615 0.4412586516296252 9.43013946408515 0 0 -1
1079 0 2 0.5897 1.25536824963348 0.5476555710426805 9.388101464719197 0 0 0
1078 0 1 -1.1794 1.4359370046657007 0.229215699447637 10.302544704453998 0 0 0
2253 0 2 0.5897 2.3965969873103625 1.4217548673783444 11.390271698531564 1 1 0
770 0 2 0.5897 1.4733682653210978 3.3148282340182327 11.329904548513282 0 1 0
1639 0 1 -1.1794 4.616434542547771 0.4847489712488356 10.30473576275388 0 0 -1
1640 0 2 0.5897 5.552603802362752 0.4256475329181209 10.108458799033976 0 0 -1
2251 0 1 -1.1794 2.7623913160551523 2.131267439509993 12.008564470805888 1 1 0
769 0 1 -1.1794 1.2629181736703425 3.897517892147055 10.574148211774252 0 1 0
2052 0 2 0.5897 1.7431681213182377 3.256346662763103 8.935949792688428 0 0 -1
493 0 1 -1.1794 6.9397007791051735 0.38419534008845546 8.60823514051303 1 1 0
1268 0 2 0.5897 9.310091570509998 1.4504754053285391 8.596742502576951 0 0 -1
2020 0 1 -1.1794 7.936833926410474 3.349603691036028 9.959604855583171 0 -1 -1
1239 0 2 0.5897 8.774848366585902 2.416826163270822 12.136271568704583 1 1 -1
2021 0 2 0.5897 7.041574756533585 3.3277123980649432 10.323119781299944 0 -1 -1
1805 0 2 0.5897 10.756280197484676 3.9859656758359363 11.401757653578835 0 0 1
494 0 2 0.5897 7.76974540314568 0.26250980748922015 9.104256561527077 1 1 0
836 0 2 0.5897 11.156810231628278 1.3288429421173482 9.740448966112856 0 0 0
835 0 1 -1.1794 11.519438229416922 2.074257563997338 10.267730809991244 0 0 0
837 0 2 0.5897 12.160677344937948 2.663970726573935 9.795254782062196 0 0 0
2101 0 1 -1.1794 9.33477299869884 0.2424578786382218 10.090307775462191 0 -1 1
842 0 2 0.5897 11.891714828745611 2.3509569281952527 11.791487165646547 0 1 1
2268 0 2 0.5897 5.1883122727492665 4.06767681631094 10.229978777483444 1 1 1
1729 0 1 -1.1794 2.482905862819959 6.381302182980526 10.145136170538045 1 0 0
989 0 2 0.5897 5.556911827915011 6.34402365629212 9.193649298577947 1 1 0
988 0 1 -1.1794 4.976666452551641 5.583696584612035 9.434649890479678 1 1 0
990 0 2 0.5897 4.066179448683774 5.9418372624052465 9.582704293861534 1 1 0
2004 0 2 0.5897 4.121864268931135 4.842984492407239 12.0401587721741 1 -1 0
1730 0 2 0.5897 2.1057102339908607 5.631094175331675 10.66031909238585 1 0 0
1731 0 2 0.5897 1.7397748278174174 6.774351676971879 9.698478476374133 1 0 0
1303 0 1 -1.1794 11.782872696714113 6.674123503869421 10.749512503324912 0 0 0
2022 0 2 0.5897 8.473110314282541 4.055196551364152 10.33123758318183 0 -1 -1
1227 0 2 0.5897 7.060912737761591 5.414999100075909 12.032093905101373 1 1 -1
509 0 2 0.5897 10.147294316089152 5.306043893854211 8.963309284828789 0 0 -1
1804 0 1 -1.1794 9.992936423900543 4.577777762659873 11.482707081378795 0 0 1
1806 0 2 0.5897 10.373108178627078 5.401343460081134 11.114374838896765 0 0 1
830 0 2 0.5897 8.872601664075827 6.748689204982765 11.193704872462217 0 1 1
829 0 1 -1.1794 8.679804228074746 6.741480528067166 10.261825580162341 0 1 1
831 0 2 0.5897 9.293387177959406 7.361520568798755 9.88293738124528 0 1 1
1305 0 2 0.5897 11.891646122731427 7.618726247962814 10.914003804673666 0 0 0
1616 0 2 0.5897 7.134363154087525 7.72897005074177 10.115944228177023 0 0 0
380 0 2 0.5897 10.84498657519867 7.716561821010893 8.459531086303555 0 0 0
1349 0 2 0.5897 2.7073751931954027 9.165382443011104 9.035735430809334 0 1 0
806 0 2 0.5897 5.373630489091313 8.280437839376399 12.433683932264794 0 2 0
1617 0 2 0.5897 6.064912082273885 8.75683633452741 10.144180007037832 0 0 0
1092 0 2 0.5897 4.2257529253907276 9.662971810135337 10.57336647016127 0 0 -1
1090 0 1 -1.1794 5.052334489038191 9.632376398345674 11.057703011662255 0 0 -1
1091 0 2 0.5897 5.069192874348688 10.491777328849292 11.47129064591296 0 0 -1
1350 0 2 0.5897 2.031469642559331 10.535522655682467 9.459647483901017 0 1 0
1348 0 1 -1.1794 2.87021933526645 9.991587324072922 9.495745756691083 0 1 0
1862 0 2 0.5897 0.9692437295477506 11.559302110729156 10.93350124592002 0 0 -1
297 0 2 0.5897 2.1464409707718235 8.124973674312125 12.15278568268411 0 0 -1
1861 0 1 -1.1794 0.830579902511428 11.531476377794462 9.992469105018408 0 0 -1
2031 0 2 0.5897 11.88007123597858 9.83464504547075 12.439797877143851 0 0 0
1874 0 2 0.5897 7.072591649611658 9.309004810535063 8.477723235081012 0 0 -1
1615 0 1 -1.1794 6.583999472476311 8.19102899139139 9.474128882095243 0 0 0
379 0 1 -1.1794 10.109914200068443 8.34035292979416 8.614147793831735 0 0 0
2016 0 2 0.5897 10.982536554306892 11.217918947971249 8.983501333939856 1 1 0
2014 0 1 -1.1794 11.419598132084937 11.072080719576638 9.808177544861666 1 1 0
2237 0 2 0.5897 9.259721510494245 10.37384894710375 10.073397196748848 1 0 1
2236 0 1 -1.1794 8.568418203197652 10.540558524456818 10.740923471356378 1 0 1
2238 0 2 0.5897 8.320928701451601 9.711296183744803 11.091720024228591 1 0 1
2030 0 2 0.5897 11.24648360300292 9.914967345945973 11.059437090564774 0 0 0
2029 0 1 -1.1794 11.31337018470553 9.358060781796137 11.85900171958865 0 0 0
1233 0 2 0.5897 9.546450684989264 11.842963640881756 11.902066396783102 1 1 -1
248 0 2 0.5897 3.875993690485237 13.353234902755435 11.466767907959479 1 0 -1
1886 0 2 0.5897 3.347415640144024 13.596642797823055 8.819347876829037 0 0 0
1601 0 2 0.5897 4.492658036083094 15.224563557756634 10.997892764301612 0 1 1
247 0 1 -1.1794 4.291035184945407 13.571526997266186 10.624747004920067 1 0 -1
249 0 2 0.5897 5.16234600186653 13.136945208282075 10.666629590792123 1 0 -1
23 0 2 0.5897 2.3816180059461938 15.672376098973436 8.871122657456832 0 -1 1
1622 0 2 0.5897 1.3847818182981242 14.795026272407846 12.40842400543694 0 2 -2
1863 0 2 0.5897 0.7393887607642823 12.461328993682493 9.735077418269176 0 0 -1
1624 0 1 -1.1794 12.077198002649807 14.883914180980433 8.878049748083217 0 0 2
1340 0 2 0.5897 7.554298074502552 12.345738737034813 10.156030132869148 0 1 0
1341 0 2 0.5897 6.8121860029402175 13.268331966902654 9.239614289507447 0 1 0
1054 0 1 -1.1794 9.154255246007892 15.16433202558695 9.025929817404256 0 -1 0
1055 0 2 0.5897 8.682244673972257 15.794184501989674 9.610982309865678 0 -1 0
1056 0 2 0.5897 8.560994234231023 14.376706027229606 9.1033976862241 0 -1 0
1626 0 2 0.5897 11.107054904129743 14.904916921642638 8.935479293111975 0 0 2
1339 0 1 -1.1794 7.069269178108099 13.197019928108187 10.148725077717986 0 1 0
2247 0 2 0.5897 10.957034373547172 15.851895371299783 11.870645885931397 1 -1 1
1605 0 2 0.5897 7.871755474707325 15.930448718412398 11.37935032522826 0 2 0
1603 0 1 -1.1794 8.3514805702176 15.494721940997149 12.079933720597229 0 2 0
1604 0 2 0.5897 7.723401881695937 14.798256671306639 12.339167087033612 0 2 0
1232 0 2 0.5897 10.877804588033408 12.601777081360916 11.85639563620465 1 1 -1
1231 0 1 -1.1794 10.131025516726186 12.399730872648592 12.407744653141743 1 1 -1
1257 0 2 0.5897 1.059768189915097 17.318993670800886 9.958390073460476 1 0 0
1600 0 1 -1.1794 4.520981216946836 16.211234465959844 10.944168436435035 0 1 1
1602 0 2 0.5897 4.522580355918507 16.460117804874223 11.902674355610323 0 1 1
24 0 2 0.5897 3.187418258492534 16.832507089798863 9.73516019312994 0 -1 1
1080 0 2 0.5897 1.1122371380675116 19.346208966078006 10.402133489473927 0 -1 0
20 0 2 0.5897 6.05902087031898 16.764211668910832 10.57682466251113 0 1 -1
22 0 1 -1.1794 2.435796672227381 16.67185291131708 9.083824221033671 0 -1 1
189 0 2 0.5897 3.7102107780289653 19.602761257077418 11.766662561464273 1 -1 0
2036 0 2 0.5897 10.470027514077605 17.820515838337638 8.615883595046776 0 1 1
2245 0 1 -1.1794 11.495644794160704 16.551110679100276 11.556663962212802 1 -1 1
2246 0 2 0.5897 12.029864723181745 16.789314984111044 12.298218346766417 1 -2 1
1007 0 2 0.5897 12.164781401829297 19.565164614202924 8.644387515647715 1 -1 0
2102 0 2 0.5897 9.98343058516227 19.64661724585638 9.777594946097471 0 -2 1
2103 0 2 0.5897 8.836575064208768 19.73105943607364 10.767781618994103 0 -2 1
19 0 1 -1.1794 6.927155409999508 16.986323440763357 10.180600001259018 0 1 -1
21 0 2 0.5897 6.803558781428862 17.371280502615576 9.331421578102704 1 1 -1
1566 0 2 0.5897 7.534386663007144 18.17328302365475 11.276191560847842 0 -2 1
2037 0 2 0.5897 11.02007407812342 17.594156292458187 10.054074943113386 0 1 1
2035 0 1 -1.1794 10.918312301617178 18.244746690758586 9.354290543628496 0 1 1
1564 0 1 -1.1794 7.748123321089073 18.968178019570207 11.843979894642478 0 -2 1
1565 0 2 0.5897 6.8864733454218054 19.24753509036598 12.13871840297439 0 -2 1
2243 0 2 0.5897 1.5289459536153756 3.0617664989789795 14.657446160749796 1 1 0
2252 0 2 0.5897 2.30207599046919 1.9164905214917594 12.804934447075128 1 1 0
214 0 1 -1.1794 3.1504737285634232 3.220222510864171 14.818001546565677 1 0 -1
215 0 2 0.5897 3.523454586168435 2.9061386553674917 15.725127840823774 1 0 -1
1143 0 2 0.5897 4.959081113600619 1.0149394012409831 12.829039061202138 0 1 -1
1141 0 1 -1.1794 5.838008129984793 0.9179839357629741 13.187689991977614 0 1 -1
290 0 2 0.5897 5.968701858764348 2.73177574733037 14.03707088445806 0 0 -2
216 0 2 0.5897 3.8814051217298995 3.0980593671583594 14.160189266666869 1 0 -1
289 0 1 -1.1794 6.152641513155191 3.558917217510267 14.46443885079576 0 0 -2
1142 0 2 0.5897 5.773956870510666 0.2338854281086976 13.907556009945129 0 1 -1
1322 0 2 0.5897 3.0376346095021365 0.6581700706354926 15.876259149670828 0 2 1
843 0 2 0.5897 11.541224787635215 2.328624172015089 13.352934639903602 0 1 1
1237 0 1 -1.1794 8.43755703430236 1.7892362352936597 12.820372537686248 1 1 -1
1238 0 2 0.5897 7.570885557021315 1.513595307208831 12.520049067909259 1 1 -1
1347 0 2 0.5897 9.132508754756799 1.0315508693949123 15.974679403896186 0 -1 -1
1575 0 2 0.5897 9.55799678619028 0.4607567716633444 12.803006948871884 0 1 1
1346 0 2 0.5897 8.408819110473562 2.0329283764561334 14.97473572219088 0 -1 -1
1574 0 2 0.5897 10.64712647519334 0.3248864145998719 14.023576303037908 0 1 1
1345 0 1 -1.1794 8.496901025785409 1.7570004684273248 15.896570425633819 0 -1 -1
1513 0 1 -1.1794 11.350571758911114 1.432434891656588 15.212765965162241 0 2 0
1515 0 2 0.5897 11.428035771445705 2.2126635014256606 15.834259274528382 0 2 0
1514 0 2 0.5897 12.025331874235945 0.7889834672552745 15.307477804798324 0 2 0
841 0 1 -1.1794 11.873274062927164 2.8644478463544027 12.634143890241749 0 1 1
2003 0 2 0.5897 4.094580047648157 6.18266908970471 12.882751157180142 1 -1 0
1050 0 2 0.5897 1.1820156994219837 5.089566479153272 14.938036077207427 0 2 0
2002 0 1 -1.1794 3.5799038349285652 5.4237481899176485 12.599941027496426 1 -1 0
805 0 1 -1.1794 5.439332301622048 7.604913749690044 13.097676719063198 0 2 0
1048 0 1 -1.1794 1.6499343299758698 5.8504923389448935 14.56347583543989 0 2 0
807 0 2 0.5897 4.982583288201741 7.901845030772723 13.886532934871601 0 2 0
1049 0 2 0.5897 2.3447112039035503 5.48079403661235 14.08358719989131 0 2 0
354 0 2 0.5897 2.3798169432811678 6.450655615852797 16.183906191206322 0 0 0
1638 0 2 0.5897 5.4386539520365575 4.664332290975712 15.728543681614337 0 -1 0
1637 0 2 0.5897 6.226776783151219 5.862474108624727 16.27732098636235 0 -1 0
1636 0 1 -1.1794 5.39166785675085 5.320705376510221 16.438763150992038 0 -1 0
1226 0 2 0.5897 6.7986618437891 6.2057297905082764 13.272804289211438 1 1 -1
1225 0 1 -1.1794 7.275172669051611 5.478422115321715 12.958134458553932 1 1 -1
291 0 2 0.5897 6.619525842372527 4.136980666572722 13.820532012347288 0 0 -2
1024 0 1 -1.1794 11.852934629673326 4.567046453580369 15.519888989138856 0 0 -1
1026 0 2 0.5897 11.12411995099675 4.692481907163303 14.941857010790269 0 0 -1
1025 0 2 0.5897 11.653057591639818 5.124995295765168 16.277484791988137 0 0 -1
1505 0 2 0.5897 9.325424149925707 5.326953370374165 13.541868502218279 1 1 0
1504 0 1 -1.1794 9.829145265295523 5.862789483988662 14.154834612087093 1 1 0
1506 0 2 0.5897 9.608789743748183 6.794373602644655 13.900027239414957 1 1 0
595 0 1 -1.1794 7.814741404344641 6.556565067638326 16.285413715399887 0 1 0
596 0 2 0.5897 8.564142144354207 6.562206918638243 15.701822032314574 0 1 -1
597 0 2 0.5897 7.798612213788318 7.432630800389455 16.67690508992433 0 1 0
1899 0 2 0.5897 6.110784532432677 10.948121846670126 13.484119570477999 0 0 -2
1014 0 2 0.5897 3.6378160809710534 8.142313283119796 15.938890429636372 0 0 0
1012 0 1 -1.1794 3.8586979337124996 8.586528223453824 15.129190958721233 0 0 0
1897 0 1 -1.1794 5.536902215784143 11.57900158601997 12.991008467731437 0 0 -2
1013 0 2 0.5897 3.8655744712838 9.570923329431178 15.245462614097223 1 0 0
2259 0 2 0.5897 3.0410642940489363 11.452293993798543 15.817358134098178 1 1 0
2257 0 1 -1.1794 3.9735247080528375 11.352822793832726 15.544143567787486 1 1 0
296 0 2 0.5897 2.447477661479038 8.234675146455194 13.61115232533969 0 0 -1
119 0 2 0.5897 1.5132868244123538 10.32305699321087 13.03754722655066 0 0 -1