LAMMPS data file via write_data, version 23 Jun 2022, timestep = 40000000

2268 atoms
2 atom types

0.9616893372540432 46.489009662725294 xlo xhi
0 20.047001 ylo yhi
0 20.857 zlo zhi

Masses

1 1.008
2 15.999

Atoms # full

1025 0 2 0.5897 5.418597843941475 2.1682400238755495 2.8036094182633073 0 1 1
1026 0 2 0.5897 4.034129594581765 2.475229001090878 2.32240463830417 0 1 1
1024 0 1 -1.1794 4.6664608058027115 1.7759681637159337 2.3777213326647533 0 1 1
1004 0 2 0.5897 5.419882195951077 1.2105458298664467 0.7742775528745334 1 2 2
1108 0 1 -1.1794 2.5207316060943556 3.517210904203906 2.2119007408511657 0 0 -3
2048 0 2 0.5897 1.7735778979104213 2.818533758260025 3.8501419982601988 0 2 1
1979 0 2 0.5897 3.3800570154650607 0.6526918889064448 3.2914130464493776 1 2 1
1110 0 2 0.5897 1.9493446684837514 3.0620315108502703 1.5761093902552457 0 0 -3
1974 0 2 0.5897 6.965136012932945 0.33617329310982147 3.626955896613955 1 0 1
278 0 2 0.5897 8.564570480665722 0.6684778685618438 0.7479577475004124 0 1 -2
33 0 2 0.5897 10.252065469186823 3.8330736023778886 2.017269576908727 0 3 2
32 0 2 0.5897 9.704047664747394 3.7364394365987876 0.5351373342214444 0 3 1
1330 0 1 -1.1794 7.0410295294990055 3.14281460772718 2.956746485820983 0 -3 2
1331 0 2 0.5897 7.734703448912974 3.5431563510579505 2.388699725005475 0 -3 2
2072 0 2 0.5897 9.347496867110001 0.4593660770705488 3.315982817521096 0 1 3
279 0 2 0.5897 7.921178382672417 1.5072809448038005 1.9139105692101601 0 1 -2
277 0 1 -1.1794 8.243709499936656 0.655223078177477 1.6685992779725236 0 1 -2
1332 0 2 0.5897 7.468334783654974 3.1366295545832226 3.862494652363834 0 -3 2
1340 0 2 0.5897 11.621767064442563 0.04969566554131349 2.1572350418445403 0 3 -1
246 0 2 0.5897 11.657425424112803 3.647236879257713 3.7213141386655764 1 -1 0
245 0 2 0.5897 11.13168802979703 2.1766082858840496 3.630166708587134 1 -2 0
244 0 1 -1.1794 10.818151748374943 3.075749753599586 3.6898735235509794 1 -2 0
241 0 1 -1.1794 12.145486369704669 0.5553608649630727 3.943583791521657 1 -2 -1
1109 0 2 0.5897 2.834540961260404 4.315942965718586 1.7640047550440234 0 0 -3
1248 0 2 0.5897 5.150337275430884 4.182813807857978 0.4798472761529117 1 2 2
1247 0 2 0.5897 5.672749323552817 4.561011158314254 1.9886376419981857 1 2 2
1246 0 1 -1.1794 5.3221208222430905 4.860711152896172 1.1554441413106182 1 2 2
34 0 1 -1.1794 3.0462652695876953 6.0846024945641926 0.6980078123383329 0 -1 0
35 0 2 0.5897 3.9387276890290517 6.004390782511848 1.0263733731100824 0 -1 0
327 0 2 0.5897 5.328309517496462 6.237546685054586 3.486246847281023 0 0 0
1523 0 2 0.5897 6.142277546514326 6.551216834623841 0.9025016932767352 0 1 -1
36 0 2 0.5897 2.4692101221830907 6.517336438431424 1.367939865645118 0 -1 0
325 0 1 -1.1794 5.817839037770727 5.411443759020263 3.6850502054623107 0 0 0
1522 0 1 -1.1794 6.57532376577191 7.418466837727483 0.8166138132296741 0 1 -1
1075 0 1 -1.1794 4.010160964763632 7.717526351448416 3.345791702960722 0 1 3
86 0 2 0.5897 1.0792865481276346 7.688764830447688 3.920883352637264 0 0 1
31 0 1 -1.1794 9.529808372177458 4.121209899099167 1.4382159396193492 0 3 1
2224 0 1 -1.1794 8.952276598560967 7.167444198911372 2.1802276246942736 1 -1 -1
2225 0 2 0.5897 8.122879484405372 7.271070071435523 1.6931399407320356 1 -1 -1
2226 0 2 0.5897 9.138442927756506 6.232559273650346 2.2069863878447364 1 -1 -1
2000 0 2 0.5897 12.185621598227378 5.767622229267862 3.823363463645921 1 1 1
600 0 2 0.5897 9.471822902147355 7.181545386872412 0.03530274068971773 0 1 1
1618 0 1 -1.1794 12.084521622289872 5.9920655488669015 0.42173269042511163 0 0 1
300 0 2 0.5897 11.082040188419185 7.615515439232399 3.861791246651445 0 0 -1
1529 0 2 0.5897 8.526753662906305 7.137675917673265 4.117027877605016 0 0 3
326 0 2 0.5897 6.691663279695606 5.70850684844747 4.047131807175887 0 0 0
1076 0 2 0.5897 4.192314719259867 8.29322336626879 2.5723856609229014 0 1 3
2127 0 2 0.5897 4.303764663916642 9.260063746432355 0.32823083847523304 0 3 -1
2126 0 2 0.5897 3.413037763505984 10.002335829814891 1.2194090377039155 0 3 -1
2125 0 1 -1.1794 4.349579315851982 9.764901265791694 1.110118027613531 0 3 -1
1495 0 1 -1.1794 1.6996188518510862 10.915109651618158 1.6434066414138677 1 -1 -1
1985 0 2 0.5897 5.766933446099737 10.502009414626205 0.12213678252606446 1 1 1
1497 0 2 0.5897 1.3503647916093744 10.913695685404003 2.565399456755469 1 -1 -1
1372 0 1 -1.1794 6.082576485819622 11.987178048029685 2.445351749529209 0 0 0
1496 0 2 0.5897 1.6560323925259102 11.806857796345188 1.2186105618269005 1 -1 -1
1374 0 2 0.5897 6.173800934317988 11.007370424555155 2.4460850240039207 0 0 0
1640 0 2 0.5897 6.314333973198707 9.02610647895614 2.2674516742021575 0 -1 -3
1077 0 2 0.5897 3.7852665161509926 8.270461666028693 4.11695257163105 0 1 3
123 0 2 0.5897 5.1401775289700335 11.842247916975051 3.9416577098105723 0 -1 1
594 0 2 0.5897 10.090209193720005 8.444398317363943 2.281943244952973 0 -1 0
1641 0 2 0.5897 6.778294212277106 9.048654797477434 3.7866500369182554 0 -1 -3
1639 0 1 -1.1794 6.945763059077242 9.405336289678898 2.9037867089957254 0 -1 -3
592 0 1 -1.1794 10.853369783115692 9.102763653571946 2.4608166457415743 0 -1 0
1001 0 2 0.5897 9.253676635323043 10.442169039368821 1.527899521078289 1 1 0
1002 0 2 0.5897 8.051743889596445 10.920034492535892 0.6878066749950285 1 0 0
1000 0 1 -1.1794 8.927124787487422 11.252410067366641 1.0210375047539968 1 0 0
2052 0 2 0.5897 10.160564285489603 10.169309317284428 3.695398563693676 0 -1 1
593 0 2 0.5897 11.565836002971078 8.874338123098173 1.8583551770806153 0 -2 0
209 0 2 0.5897 12.039221337367374 10.950773399057576 2.252830231401736 1 1 -1
1584 0 2 0.5897 5.044224022033268 13.029403749779297 1.8059216900903234 0 2 -1
1583 0 2 0.5897 4.187766917472417 13.137624086417995 0.5952750461786255 0 2 -1
1582 0 1 -1.1794 4.153131099050956 13.336433997570095 1.521612199475338 0 2 -1
1233 0 2 0.5897 3.8283710553905643 15.255725807622623 1.1618320022437 1 1 1
227 0 2 0.5897 3.0465018238670147 13.448383631168888 3.016277147159163 1 1 0
226 0 1 -1.1794 2.9914753687358537 13.809960640075953 3.941758666189143 1 1 0
228 0 2 0.5897 2.0652722466918862 13.941103326203168 4.09750510130051 1 1 0
2251 0 1 -1.1794 5.003246328689151 15.827140777691017 4.162795125000187 1 0 0
1082 0 2 0.5897 1.2690589927449354 14.091303529904055 0.1933068100382935 0 -1 1
791 0 2 0.5897 7.408686799605247 14.772423113789056 0.8064255546656426 0 0 1
1571 0 2 0.5897 9.30318415172915 12.574491420533654 3.7406093977751715 0 -1 -1
1373 0 2 0.5897 6.997882352577638 12.315601751335981 2.6736978652069654 0 0 0
790 0 1 -1.1794 7.202641759806128 15.0336674182858 1.7296576322219983 0 0 1
792 0 2 0.5897 7.772325855572942 14.453234155065651 2.2380680859648243 0 0 1
1642 0 1 -1.1794 10.63126258221795 15.442353033127295 1.9130089829470156 0 1 0
1644 0 2 0.5897 11.027153944774973 14.888629583529752 2.6335399923468334 0 1 0
2147 0 2 0.5897 12.197903467837225 15.996315700239956 0.8863527708009826 0 1 1
1643 0 2 0.5897 10.063311597440366 14.833684659280602 1.3725041663054693 0 1 0
1987 0 1 -1.1794 11.71297164400508 13.750065104709806 3.9658602069899147 1 0 1
815 0 2 0.5897 9.89657695234737 12.901956052527678 0.35780918810228185 0 1 3
1988 0 2 0.5897 11.956541729544272 12.925331599816378 3.555849126729814 1 0 1
1570 0 1 -1.1794 8.546803285379802 13.131057109020459 3.796573013937314 0 -1 -1
1972 0 1 -1.1794 6.194835157318024 19.824656764783807 3.8297696091291966 1 -1 1
322 0 1 -1.1794 3.116791128972132 19.168343540729396 0.5761091410037259 0 -1 1
1231 0 1 -1.1794 3.316276327819703 16.0870046967549 1.3748846550513798 1 1 1
2252 0 2 0.5897 5.1005536258601065 16.08175369765219 3.264511814071025 1 0 0
60 0 2 0.5897 2.4147417291586377 16.70755316010216 2.8837845653209158 0 -3 1
324 0 2 0.5897 3.3899747066142103 19.349169638728245 1.4959948743648956 0 -1 1
1232 0 2 0.5897 3.2500664478259362 16.621257746747684 0.5573883124727028 1 1 1
58 0 1 -1.1794 2.0391737881562326 17.171452592558094 3.6332314415634195 0 -3 1
59 0 2 0.5897 2.481371764911299 18.04645689823856 3.589873136018047 0 -3 1
1973 0 2 0.5897 6.249151062439119 19.213236464419477 3.124416802149601 1 -1 1
1776 0 2 0.5897 6.614270050876965 18.246330313223005 0.3767750426058806 0 2 -1
1978 0 1 -1.1794 3.0426499137423386 19.874487233700616 3.7310893266425014 1 1 1
1823 0 2 0.5897 1.438706999154032 19.41681654891472 0.8590981505560712 0 0 1
1095 0 2 0.5897 6.556449530007999 16.763477361832646 1.97018173405774 0 1 1
1093 0 1 -1.1794 6.685078129177561 17.695788270477905 2.176005332403602 0 1 1
1094 0 2 0.5897 7.635388334082151 17.857248014446743 2.178106895473362 0 1 1
1341 0 2 0.5897 10.876592293168853 19.965785270800584 0.7910689097363551 0 2 -1
1339 0 1 -1.1794 11.346204946074685 19.460156798065313 1.4705842311183694 0 2 -1
539 0 2 0.5897 9.657971544798786 16.89110472955689 2.2322422519638923 0 0 2
540 0 2 0.5897 10.14693519263792 18.318363348018664 1.9645172841154999 0 0 2
538 0 1 -1.1794 9.380393130302286 17.827499880196967 2.3059124127505846 0 0 2
102 0 2 0.5897 10.440365767615894 17.601255664603293 3.970504018524329 0 -1 -2
2049 0 2 0.5897 1.2407842103119266 2.4350516083482385 5.300051857719033 0 2 1
97 0 1 -1.1794 2.77096613078023 2.4592273318934517 6.5144050112478835 0 2 -3
1111 0 1 -1.1794 5.207896161740694 0.5584155254427462 6.527328976307471 0 -7 0
1113 0 2 0.5897 5.544889874235358 1.2041916901853342 5.910752945814159 0 -7 0
98 0 2 0.5897 3.121511318081724 1.524883570872733 6.572955043941927 0 2 -3
99 0 2 0.5897 2.594974854436659 2.7277348600196456 7.430220405153029 0 2 -3
986 0 2 0.5897 6.238646604487071 0.3970798010971402 8.06512191154723 1 0 -2
551 0 2 0.5897 4.221393640503354 3.0495790722262033 5.436745602248423 0 1 -3
550 0 1 -1.1794 5.105667472428406 3.1035960405168352 5.2092342499920345 0 0 -3
552 0 2 0.5897 5.370049912357665 3.920911864714763 4.803097246226693 0 0 -3
2047 0 1 -1.1794 0.9972906598174043 2.4565537911797413 4.336992931949593 0 2 1
242 0 2 0.5897 11.285643921512662 0.17294042367334464 4.18390615798675 1 -2 -1
2071 0 1 -1.1794 9.59604827766626 0.4569044845783593 4.23803891287483 0 0 3
852 0 2 0.5897 11.652126140459464 3.725777960742662 6.537272527918572 0 3 -1
41 0 2 0.5897 9.631458385386997 0.19776203372109283 7.171825730658895 0 1 4
40 0 1 -1.1794 9.225596873504916 1.0417718402425624 7.491978351278375 0 1 4
42 0 2 0.5897 8.403523543522411 0.7843324582582051 7.891759344566731 0 1 4
1479 0 2 0.5897 8.658316131107487 2.119095162194756 5.7336019881469 1 0 -1
1477 0 1 -1.1794 8.521395025916934 2.976070565407227 5.291345316634556 1 0 -1
1478 0 2 0.5897 9.362210872687502 3.094190160323003 4.7933711779435635 1 0 -1
553 0 1 -1.1794 1.6133124138725257 5.267116336806847 5.80028715792589 0 -1 2
1617 0 2 0.5897 3.530069245536959 5.1052326969774455 6.620673590370414 0 1 -1
1615 0 1 -1.1794 3.8180204849647326 5.317281284389282 7.504880781343634 0 1 -1
1616 0 2 0.5897 4.610864161583329 5.865539583959444 7.43954990119007 0 1 -1
250 0 1 -1.1794 5.77192477307549 7.478053882608326 7.503082615922172 1 -1 0
252 0 2 0.5897 4.968403886503764 7.8728463729595495 7.794005723516472 1 -1 0
251 0 2 0.5897 6.416494945253419 7.44014023355453 8.219887098764282 1 -1 0
554 0 2 0.5897 1.534436621693195 6.2027410907572875 5.610180258128053 0 -1 2
2128 0 1 -1.1794 7.007258824658875 4.847102692504968 6.772762648279501 0 4 1
2129 0 2 0.5897 6.804406437424576 5.541749373899029 6.126429160006855 0 4 1
2130 0 2 0.5897 7.199390388780765 4.114669999615259 6.20357840852684 0 4 1
298 0 1 -1.1794 11.137167063850578 6.788685190036187 4.446248091201897 0 0 0
1596 0 2 0.5897 9.66323983396755 4.566791114238471 6.942882294562969 0 1 2
1528 0 1 -1.1794 8.11292104840642 6.945515035419673 4.8882327746602945 0 0 3
1594 0 1 -1.1794 10.534158622834472 5.038397068530425 6.858004196222244 0 1 2
1595 0 2 0.5897 10.3245581437644 5.581994259042358 6.089777428424124 0 1 2
1530 0 2 0.5897 8.59861761916834 7.425768931027351 5.607753877767198 0 0 3
299 0 2 0.5897 11.744828198557 7.01376670830709 5.166603924868361 0 0 0
308 0 2 0.5897 7.893186962027516 5.9774229553247995 8.059691125470865 0 -1 2
293 0 2 0.5897 3.368515652594513 9.363782712325015 6.164855609107533 0 2 3
292 0 1 -1.1794 3.1790996405103082 9.652273146403182 5.239689858160039 0 2 3
87 0 2 0.5897 1.4087627658215027 8.784344541881149 5.027852171138547 0 0 1
1637 0 2 0.5897 1.4019026625728945 10.878096164737832 7.457678666909101 0 -1 2
294 0 2 0.5897 3.6310202683143102 10.461129625764578 5.149340666276024 0 2 2
2038 0 1 -1.1794 4.827405725766699 11.36058279382875 7.70996144893244 0 1 1
3 0 2 0.5897 6.276813128246088 8.761465724493773 6.369447265572661 0 0 -1
2040 0 2 0.5897 4.65733695644375 11.776709535150262 6.829574980585201 0 1 1
2 0 2 0.5897 5.332458527668911 9.511370515487222 5.590424535136615 0 0 -1
1 0 1 -1.1794 6.256759774094601 9.43274294583577 5.669301483366323 0 0 -1
121 0 1 -1.1794 4.508460339667448 11.791355484818515 4.704580964495004 0 -1 1
1638 0 2 0.5897 2.6526761525056175 11.761409431640537 7.100069213598751 0 -1 2
1636 0 1 -1.1794 1.8128450720786726 11.75176909626963 7.575598297236423 0 -1 2
745 0 1 -1.1794 3.483414994962886 8.985078421674784 8.173367699412411 1 0 -3
2050 0 1 -1.1794 9.815174383519913 10.493227128355253 4.501979698047174 0 -1 1
1388 0 2 0.5897 11.38280564978678 11.024450251347988 5.193763816404265 0 2 0
128 0 2 0.5897 10.317861709105216 8.600886051187029 7.07864207339916 0 1 -1
2051 0 2 0.5897 9.706153698616106 9.7644357258632 5.058246678078211 0 -1 1
1653 0 2 0.5897 6.968013568838339 11.341605715182391 6.336595599872247 0 -1 -2
129 0 2 0.5897 8.777224944757382 9.07850085568231 7.174308531862825 0 1 -1
127 0 1 -1.1794 9.489304489911921 8.712838568853718 6.601700634742796 0 1 -1
819 0 2 0.5897 6.717068123804879 9.88333059497046 8.32546699749529 0 0 -5
1387 0 1 -1.1794 12.33933835029197 11.17907951893908 5.344547273948069 0 2 0
2253 0 2 0.5897 4.212456022660695 15.247968322622656 4.195786194221902 1 0 0
122 0 2 0.5897 3.9688240396034655 12.557622859026948 4.600084503010636 0 -1 1
544 0 1 -1.1794 5.441187372634434 14.321047836594063 6.995149513313229 0 0 -1
545 0 2 0.5897 4.515396493578361 14.409310203082168 7.18574843746211 0 1 -1
1484 0 2 0.5897 2.420302787165375 15.138054282414531 7.06838252473709 1 3 0
1483 0 1 -1.1794 2.969062996989632 14.903107651711737 7.884421075662524 1 3 0
546 0 2 0.5897 5.666080956479858 14.89614336207409 6.266816865886807 0 0 -1
1453 0 1 -1.1794 1.1666723787035385 15.57171791454381 5.663140272354858 1 0 0
1485 0 2 0.5897 3.317041924978298 15.785539469804414 8.128173157591352 1 3 0
2039 0 2 0.5897 5.031445558134088 12.098536920892705 8.255219334594965 0 1 1
1782 0 2 0.5897 6.716727082797077 15.602002906565524 4.533381330103768 0 0 2
1989 0 2 0.5897 11.118350958222512 13.496826871027139 4.698739873133876 1 0 1
1651 0 1 -1.1794 7.322966365708509 12.194945162364622 6.0258937204154455 0 -1 -2
2246 0 2 0.5897 9.487078109983534 12.413867448735102 6.450748939895409 1 -3 3
1780 0 1 -1.1794 7.597684868617216 15.630448352786864 4.987801151221724 0 0 2
1652 0 2 0.5897 6.8191269954761395 12.85526221962446 6.508041954682434 0 -1 -2
1781 0 2 0.5897 8.090067805006445 14.791500335910474 4.72836260111121 0 0 2
1572 0 2 0.5897 8.037176666429042 12.708662709682772 4.474206309542936 0 -1 -1
2245 0 1 -1.1794 10.292341435071013 13.001350442854847 6.477128822595581 1 -2 3
1765 0 1 -1.1794 10.218459278336642 15.567946368543915 6.559405373697181 0 -1 -1
2247 0 2 0.5897 9.902491876191775 13.829037549446944 6.721397065974959 1 -2 3
582 0 2 0.5897 10.898775196386001 12.508554678002508 8.02640446960927 0 2 0
1766 0 2 0.5897 9.552615790371746 15.873472945447581 7.19373712779287 0 -1 -1
1787 0 2 0.5897 11.891713746555013 15.090191254657094 7.088866273314306 0 0 -1
1980 0 2 0.5897 3.7987388909195348 19.569782150394566 4.21741728482338 1 1 1
1868 0 2 0.5897 1.1184557731771754 18.83390073610618 6.784285307957326 0 3 -1
1112 0 2 0.5897 5.1396168470029835 19.7315418900415 6.0654052543520045 0 -8 0
1454 0 2 0.5897 1.3571055206398372 16.34739703803805 5.03779634159844 1 0 0
1343 0 2 0.5897 4.644328005983828 17.35422313866731 5.067023944927788 0 0 0
1344 0 2 0.5897 4.322503908267354 17.582680715804468 6.645421350660626 0 0 0
1342 0 1 -1.1794 4.556823669396661 18.034149384019752 5.846889467278865 0 0 0
2073 0 2 0.5897 9.008849661514509 19.839534548254044 4.666545260828293 0 -1 3
1767 0 2 0.5897 10.144831335075402 16.13439098909593 5.818103671619393 0 -1 -1
810 0 2 0.5897 7.435513652426229 16.2892344124417 7.704255754234017 0 1 1
945 0 2 0.5897 7.176919890316763 18.58797254471626 5.216630623773194 1 -2 1
944 0 2 0.5897 7.982308800189399 17.277674062095752 5.114028567090581 1 -2 1
101 0 2 0.5897 11.762100597056056 16.98171052752122 4.565955707722334 0 -1 -2
808 0 1 -1.1794 8.15695218712381 16.897992929218223 7.753520658367172 0 1 1
943 0 1 -1.1794 8.038355477358573 18.225250900225227 5.384271313013859 1 -2 1
100 0 1 -1.1794 10.970454826253553 17.54631735191778 4.749007874268873 0 -1 -2
809 0 2 0.5897 8.02061587370775 17.475370976455814 6.951882896834551 0 1 1
2234 0 2 0.5897 10.803493899131691 18.521650339284893 6.166066317488515 1 -1 2
2233 0 1 -1.1794 10.776164053776183 18.815455732418236 7.086361373116835 1 -1 2
2235 0 2 0.5897 11.579880800639527 19.3317046584563 7.370221676158185 1 -1 2
699 0 2 0.5897 6.316427851658968 2.6131352898142786 9.061372955509503 1 0 1
697 0 1 -1.1794 6.2434152424695695 3.559381452713521 9.298661372980241 1 0 1
1551 0 2 0.5897 3.7964596811125815 1.9241827856921188 10.228841713377491 0 -2 -2
1550 0 2 0.5897 4.795468693411722 0.7772569577166311 10.493809532489415 0 -2 -1
1549 0 1 -1.1794 3.8324674557175387 1.0174963972451927 10.599362543419158 0 -2 -1
1763 0 2 0.5897 2.2956933631879117 0.47809760498000614 11.731509083863534 1 1 0
637 0 1 -1.1794 2.7227646787959268 3.365247187259294 9.228577827276247 0 0 1
638 0 2 0.5897 1.8482575282750275 3.754254971771328 9.320969269739628 0 0 1
2085 0 2 0.5897 2.789644504724525 0.1235119921654569 9.271251460308939 0 0 1
1750 0 1 -1.1794 6.343632620696135 0.8691939112741284 12.039787617649331 1 -3 2
1752 0 2 0.5897 5.860515094994392 1.5929504649412662 12.38748277448671 1 -3 2
1762 0 1 -1.1794 1.417948578259794 0.28676259659394726 12.077217949440435 1 1 0
1314 0 2 0.5897 2.5702218632569362 3.2472289543871367 11.388209728442321 0 0 0
1312 0 1 -1.1794 2.573459794289162 3.665336265282748 12.236087052463038 0 0 0
698 0 2 0.5897 5.8132189612069025 3.986885868761698 8.511820255343165 1 0 1
1358 0 2 0.5897 9.300490400554747 2.499491599104922 8.686271587759359 0 1 -3
1359 0 2 0.5897 8.883689748402741 3.8081756946601497 9.35757616188093 0 1 -3
985 0 1 -1.1794 6.773066034092197 0.75405196002711 8.822937066143187 1 0 -2
1537 0 1 -1.1794 11.88409213940608 2.737343391814769 10.905278111996552 0 2 0
1611 0 2 0.5897 7.949757574709956 0.9140199416840695 11.675108125158099 0 3 -1
1609 0 1 -1.1794 8.894054711693375 1.2578331143159944 11.446185383144007 0 3 -1
1357 0 1 -1.1794 9.471731008270591 3.062899871589326 9.457514096505962 0 1 -3
1610 0 2 0.5897 9.004710891376595 1.6618711656303402 10.550996327942396 0 3 -1
1539 0 2 0.5897 11.042735088132495 3.1647940230978064 10.771697084149995 0 2 0
891 0 2 0.5897 11.65815822972934 0.9231629701562856 10.7591545722767 0 -2 1
1538 0 2 0.5897 12.264633245338047 2.9954437508581933 11.740647340026252 0 2 0
639 0 2 0.5897 3.260680509174329 4.078932249107041 8.840282272710162 0 0 1
728 0 2 0.5897 5.549194981794563 5.601061528699709 11.309733988219158 1 0 -2
727 0 1 -1.1794 4.6633070571789705 5.409354067704958 10.973784036373198 1 0 -2
729 0 2 0.5897 4.772931766270547 4.623767188047376 10.444060763598616 1 0 -2
1536 0 2 0.5897 2.6618855076403687 6.306561710293701 8.863742289344016 0 2 0
1534 0 1 -1.1794 2.222894088348146 6.832915035183369 9.564308743673351 0 2 0
1535 0 2 0.5897 2.717672163362463 6.757454060636716 10.419770799496657 0 2 0
1257 0 2 0.5897 5.4825875901544725 7.533420489537658 12.471152873200891 1 -1 -2
307 0 1 -1.1794 7.893944038340976 6.358221906127889 8.939477763658866 0 -1 2
309 0 2 0.5897 7.3832308306947585 5.629079127847392 9.399902954377366 0 -1 2
525 0 2 0.5897 9.566543865692045 7.4557929404866625 9.461140260696068 0 0 -2
1271 0 2 0.5897 8.460825547124207 5.500651540244056 11.487977025112954 0 -2 0
1270 0 1 -1.1794 7.562625626326772 5.2114438749569665 11.487153149411915 0 -2 0
1302 0 2 0.5897 11.02835163579088 5.369827311060902 10.471132395785109 0 1 0
1300 0 1 -1.1794 10.415028644497278 5.655955685137792 11.195312436069457 0 1 0
524 0 2 0.5897 11.07619588583018 7.802928106140467 9.556096965505498 0 0 -2
1272 0 2 0.5897 7.3263453955519955 5.0069958794867455 12.421487919699533 0 -2 0
1301 0 2 0.5897 10.936102604330541 6.224617964488244 11.804557389286032 0 1 0
747 0 2 0.5897 3.1165722598733026 8.615720914397166 8.970935044794569 1 0 -3
1729 0 1 -1.1794 1.553397181587201 9.025127605050248 11.450621693579615 1 1 0
746 0 2 0.5897 3.9600436091066555 9.779053406335706 8.50908090284212 1 0 -3
1730 0 2 0.5897 1.9983625340231852 9.854395613572107 11.15542310064055 1 1 0
1801 0 1 -1.1794 2.6582371727596086 11.476548500806391 10.328971086837958 0 1 -1
1802 0 2 0.5897 2.271188495777768 11.472171566169441 9.414250979960963 0 1 -1
1803 0 2 0.5897 3.4761239849126127 11.988015129051673 10.16980778231857 0 1 -1
786 0 2 0.5897 6.246857298077797 9.993269473897119 12.018526399723111 0 0 -1
1863 0 2 0.5897 5.6431978474590565 12.001565277162594 10.766061239644934 0 1 0
784 0 1 -1.1794 5.954079402527094 10.921755716555536 12.111888921654222 0 0 -1
581 0 2 0.5897 11.758052089150391 11.312640861013012 8.69990678387609 0 2 0
2238 0 2 0.5897 7.3428503017774815 8.330708667817555 12.324881939166964 1 1 5
523 0 1 -1.1794 10.192122159822961 8.152303573684696 9.547087547912634 0 0 -2
2236 0 1 -1.1794 6.707185569614093 8.418856366091376 11.572915728485636 1 1 5
1263 0 2 0.5897 9.940340843288576 9.095907768351367 10.966296977875254 0 0 0
2237 0 2 0.5897 7.1144280944299085 8.28208921955761 10.725889801524556 1 1 5
818 0 2 0.5897 7.8914998593137256 10.22999551029898 9.160664708895741 0 0 -5
817 0 1 -1.1794 7.540109547135226 9.481393557347507 8.649460248187703 0 0 -5
580 0 1 -1.1794 11.056013218383299 11.952492755327196 8.865303394865196 0 2 0
1779 0 2 0.5897 9.654094682203816 11.590583064522102 9.766767418243301 0 0 0
1777 0 1 -1.1794 8.733570957400858 11.51579538789838 10.074093059452746 0 0 0
1778 0 2 0.5897 8.829467159791207 10.977906460227828 10.895349709491883 0 0 0
1261 0 1 -1.1794 10.053367431168907 9.627428809087496 11.794757589528036 0 0 -1
1217 0 2 0.5897 11.573665735528467 10.555362618194765 11.888418055715949 1 -4 1
1861 0 1 -1.1794 5.253216928941074 12.592544686651923 10.129652483441241 0 1 0
731 0 2 0.5897 1.4615901952600066 12.539058124651833 11.68314283347971 1 3 -1
21 0 2 0.5897 1.8966785890996793 14.812635970427127 9.469376675034228 1 0 1
1862 0 2 0.5897 5.75194141138143 13.415406561710249 10.178074807133543 0 1 0
19 0 1 -1.1794 1.5132574268128436 15.16652694153907 10.318086642668089 0 0 1
964 0 1 -1.1794 6.231542670610665 15.130736689617429 9.570865648354385 1 1 2
966 0 2 0.5897 5.594106071189322 15.111853499584859 8.808901870805617 1 2 2
330 0 2 0.5897 2.5820422716442506 14.685227771684188 11.880435521172368 0 -2 0
965 0 2 0.5897 5.861860059990372 15.868443325109276 10.135332890137798 1 1 2
329 0 2 0.5897 3.927750965124845 15.088290657014477 12.49113185011612 0 -2 0
1280 0 2 0.5897 7.5239903110328425 14.191734463894463 8.806915163563454 1 -1 2
1281 0 2 0.5897 8.609954664436756 13.295398376224842 9.45114422616638 0 0 2
1279 0 1 -1.1794 8.46612515743092 13.927325524490344 8.7279843806312 0 0 2
854 0 2 0.5897 10.323318320402334 14.81972037409684 11.025463303996661 0 1 -1
853 0 1 -1.1794 9.584241243520582 15.412199868970268 10.901282281532914 0 1 -1
855 0 2 0.5897 9.129042784053043 15.100619218428676 10.09829911761693 0 1 -1
2250 0 2 0.5897 11.645729043080404 13.10031882541613 10.104613357568713 1 0 0
560 0 2 0.5897 10.88947470290201 12.64528453898544 12.430706108348733 0 -3 2
2248 0 1 -1.1794 11.654673278867097 13.63845627985395 10.918788063844756 1 0 0
51 0 2 0.5897 8.348868446970833 15.495961800060677 12.06378554684072 0 0 0
2084 0 2 0.5897 1.5847107497608302 19.14434085380454 9.017104488640241 0 -1 1
1239 0 2 0.5897 3.3277288573393267 18.165770056539866 8.348058606462898 1 -4 -1
1237 0 1 -1.1794 3.7129247505882113 17.300605014896345 8.54299593327061 1 -4 -1
2083 0 1 -1.1794 2.3226603350301143 19.608172540662935 8.64030747213917 0 -1 1
1053 0 2 0.5897 1.6102925975750497 16.945284528883263 11.090492120514293 0 -2 -2
1238 0 2 0.5897 4.112563030689282 17.429546945493062 9.41869525638187 1 -4 -1
220 0 1 -1.1794 5.254864485234692 17.442011459515694 11.13678475864987 1 0 2
1051 0 1 -1.1794 1.8609538199007887 17.42675837906222 11.870735965021424 0 -2 -2
222 0 2 0.5897 5.024545200345366 17.65742884397436 12.069307881813835 1 0 2
221 0 2 0.5897 5.990683078578277 18.11512398947556 11.056373424781642 1 0 2
1052 0 2 0.5897 1.3296738414888378 18.263696423731705 11.8328059974522 0 -2 -2
889 0 1 -1.1794 11.932464496688288 20.03998134449186 10.85507153589532 0 -3 1
987 0 2 0.5897 7.088768632339913 19.98964602594291 9.304707438411882 1 -1 -2
1193 0 2 0.5897 9.523949218948998 19.385680774980163 11.783940125436924 1 -2 1
2055 0 2 0.5897 8.401168545782285 18.33353334787641 10.55922434668641 0 -1 -3
2054 0 2 0.5897 7.745981853607349 17.84777656996141 9.263119895227783 0 -1 -2
2053 0 1 -1.1794 7.544806460751474 18.40225144520574 10.045051233442079 0 -1 -2
510 0 2 0.5897 10.868931626006102 17.695289141735564 8.552043245153373 0 2 0
509 0 2 0.5897 10.335836759088979 16.798365007396573 9.78748942579521 0 2 0
890 0 2 0.5897 11.309317821166134 19.459426267911304 10.443685053682913 0 -3 1
508 0 1 -1.1794 11.058646936117654 17.371484232573728 9.420859148465588 0 2 0
1192 0 1 -1.1794 9.515027805867854 18.44316219424726 11.941752675711426 1 -2 1
1194 0 2 0.5897 10.398637157942137 18.21129842451535 12.27121721506339 1 -2 1
1764 0 2 0.5897 1.3544851252699037 0.6355235885134178 12.956392861443145 1 1 0
1313 0 2 0.5897 1.7676673551436477 3.3690137553358754 12.659592778881406 0 0 0
2006 0 2 0.5897 3.9023715214130417 3.2731590430011726 13.077278455640057 1 1 -1
1751 0 2 0.5897 6.278689247581505 0.17462631929865877 12.731090256493692 1 -3 2
2005 0 1 -1.1794 4.730484548571874 3.020666790955663 13.582965507835887 1 1 -1
587 0 2 0.5897 4.515328729260549 1.7370450756948856 14.741267239282582 0 0 0
586 0 1 -1.1794 4.38185615451253 0.8165579361877902 15.052093663850563 0 0 0
629 0 2 0.5897 2.4338088946166083 0.999483685462694 15.073645393178344 0 5 0
628 0 1 -1.1794 1.554679209663204 0.9943130561869782 14.731188055162946 0 5 0
2007 0 2 0.5897 5.379891512597012 3.7403744075249237 13.656061653179087 1 1 -1
588 0 2 0.5897 4.823585324049603 0.8000194246219249 15.96339126007677 0 0 0
630 0 2 0.5897 1.0355181392473798 0.43503070345791317 15.346136357126037 0 5 0
1269 0 2 0.5897 12.110499913332632 2.540231187686069 16.10388689445796 0 0 0
494 0 2 0.5897 9.387553087083301 2.1475994660658175 12.834494743846369 1 1 -2
493 0 1 -1.1794 9.998230086885346 2.4821313290112315 13.579353720020656 1 1 -2
495 0 2 0.5897 9.44370062868717 2.409482912151398 14.36822278305004 1 1 -2
1080 0 2 0.5897 11.155824411750592 1.2450403230319578 13.577123996541275 0 2 -1
841 0 1 -1.1794 7.870492784307969 2.357818500411961 15.660297976708748 0 2 0
842 0 2 0.5897 7.016981500665034 1.8699487338601357 15.510788721901516 0 2 0
843 0 2 0.5897 8.143451871385242 1.9103118758086526 16.43126170576382 0 2 0
1078 0 1 -1.1794 11.852690740544716 0.5804013600259482 13.724571757445073 0 2 -1
1079 0 2 0.5897 12.018728957112648 0.19745382659907848 12.879479144764804 0 2 -1
1493 0 2 0.5897 4.9710296212973875 4.572789029918743 15.716475238463536 1 1 0
506 0 2 0.5897 1.5335454892082518 6.957464709343272 12.95993416141756 0 1 0
1255 0 1 -1.1794 4.985188787484772 7.343261879401073 13.260453101161765 1 -1 -2
1256 0 2 0.5897 4.094109317198666 6.970318930579772 13.035188050014453 1 -1 -2
507 0 2 0.5897 2.296611127237676 5.672630858649415 12.742068123058933 0 1 0
505 0 1 -1.1794 2.3663835660957693 6.496372430853653 13.211983854321328 0 1 0
141 0 2 0.5897 2.3527276437613573 7.246080262294293 14.925627814083596 0 0 1
139 0 1 -1.1794 2.3345680015154877 7.623718267140371 15.834611844357644 0 0 1
1028 0 2 0.5897 5.669675779026089 7.459265682602016 16.137361082205285 0 2 1
1754 0 2 0.5897 5.990060833263662 5.955323795476328 14.118716649843362 1 -2 1
1753 0 1 -1.1794 6.520971562422884 5.150434957997216 14.27467973291282 1 -2 2
1492 0 1 -1.1794 4.774126580333584 4.26704517645011 16.569266265904403 1 1 0
1029 0 2 0.5897 4.203062790947383 7.607460650125746 16.61101304639021 1 2 1
371 0 2 0.5897 8.386641060380764 4.150635430761995 16.090541291228117 0 2 0
1883 0 2 0.5897 9.611093303124616 4.596966631664619 13.535521038513883 0 2 1
1755 0 2 0.5897 7.1629500566771656 5.295473365595174 14.998955026531817 1 -2 2
1884 0 2 0.5897 9.272277076698622 5.283619162369026 14.862577136123905 0 2 1
1882 0 1 -1.1794 9.640012913197598 5.430371840473711 13.981294567345136 0 2 1
1056 0 2 0.5897 11.529149157590018 5.892142294208646 14.218096143563761 0 0 -2
2037 0 2 0.5897 8.830708046444636 7.294781069647344 13.810766209426347 0 4 2
370 0 1 -1.1794 8.482497265873443 5.055468545403423 16.300815261011888 0 2 0
1054 0 1 -1.1794 12.202900005786397 6.603645215534214 14.265328347468632 0 0 -2
1055 0 2 0.5897 11.736852480270453 7.4065791206355645 14.623417062736902 0 0 -2
469 0 1 -1.1794 1.4298281298074549 10.33811730517118 13.978399317835336 1 -2 -3
140 0 2 0.5897 1.446504464722032 8.031387072926833 15.893576770194686 0 0 1
785 0 2 0.5897 5.305736852858793 10.946182995919584 12.87697411454763 0 0 -1
295 0 1 -1.1794 4.481575947716941 9.934425544502396 14.24325051391871 0 -1 -3
296 0 2 0.5897 3.5808955269954414 10.048590908882513 14.072623116808595 0 -1 -3
297 0 2 0.5897 4.546924712519685 9.030218370175069 13.85948550132447 0 -1 -3
72 0 2 0.5897 5.442690589839559 10.461285692089955 15.59987503431226 0 0 1
70 0 1 -1.1794 5.9592365208258045 10.663640759143922 16.39464130550892 0 0 1