LAMMPS data file via write_data, version 23 Jun 2022, timestep = 15176000

2268 atoms
2 atom types

0.9204337364777757 46.530265263525706 xlo xhi
0 20.047001 ylo yhi
0 20.857 zlo zhi

Masses

1 1.008
2 15.999

Atoms # full

2110 0 1 -1.1794 3.4304990029968767 3.160832744716954 2.7730971948552803 0 0 1
2112 0 2 0.5897 3.78758182664592 3.1577598533994484 3.6834214430956185 0 0 1
128 0 2 0.5897 2.9827416843047954 1.4093236865699446 2.5754754967478304 0 1 1
2264 0 2 0.5897 5.086772207150618 2.228373853119549 0.752360773963919 1 0 2
2265 0 2 0.5897 5.625929442253732 1.8315416606544774 2.293050542342381 1 0 2
2263 0 1 -1.1794 5.827443886563278 2.209623031746146 1.3822055679973775 1 0 2
127 0 1 -1.1794 2.840901092348404 0.3969245234190706 2.515912055706495 0 1 1
2257 0 1 -1.1794 5.765733319142167 0.9565497793986147 3.6377104278702186 1 1 0
129 0 2 0.5897 2.053562657465684 0.24887146466623475 1.9559254851963142 0 1 1
2111 0 2 0.5897 2.604307605066259 3.66999697020544 2.713880710400756 0 0 1
345 0 2 0.5897 1.636532172973347 3.4473906093948146 0.46209287612911276 0 1 -1
2259 0 2 0.5897 5.010308151603909 0.5246842864070292 4.10944676630122 1 1 0
470 0 2 0.5897 8.90686528182794 0.5985457550334568 3.6858050124476778 1 -2 -1
469 0 1 -1.1794 9.660471137251804 1.0025510268269768 3.251688824664979 1 -2 -1
362 0 2 0.5897 10.959850590225367 1.7970160870768959 0.9787991822994269 0 2 0
516 0 2 0.5897 7.4571261554997825 3.1129569431337587 1.7507604345808871 0 0 -1
514 0 1 -1.1794 8.242048389391162 3.313271986544095 2.246989952256126 0 0 -1
353 0 2 0.5897 6.901829436697033 0.7938748169836604 0.48640532972927014 0 -1 -1
515 0 2 0.5897 8.610770226278628 2.408793040984435 2.472267951794766 0 -1 -1
471 0 2 0.5897 9.83345544552629 0.4013813201562384 2.53350169598347 1 -2 -1
1299 0 2 0.5897 10.754125606203024 2.0633079000206114 3.7460739496494635 0 -1 -1
1298 0 2 0.5897 11.954804127331816 3.0836180208939936 4.101645674043853 0 -1 -1
361 0 1 -1.1794 10.260232440457722 1.5518245454459922 0.3689189362454709 0 2 0
2055 0 2 0.5897 4.871882147383813 4.312319550589623 1.83323061860809 0 0 -1
1817 0 2 0.5897 2.1639955438231135 5.607460606282445 1.675589674656835 0 1 1
1057 0 1 -1.1794 3.25470933291512 6.791526095121151 2.5672265734113777 0 0 -1
1816 0 1 -1.1794 1.4605857195459464 5.184136378681136 1.2057099380346372 0 1 1
2054 0 2 0.5897 4.619039792575231 5.915332259890591 2.0267709082647736 0 0 0
2053 0 1 -1.1794 5.295974462895081 5.209594217427585 1.810341906038349 0 0 0
1238 0 2 0.5897 6.566272849183088 5.4687643561726595 0.7277065404918314 1 -1 -1
1590 0 2 0.5897 6.4068175713751145 5.217279514876091 3.3119279851712777 0 1 3
1058 0 2 0.5897 3.4948943198492315 7.701146609361703 2.7174233090653765 0 0 -1
1059 0 2 0.5897 3.331109696468291 6.385559725059221 3.4790798071850997 0 0 -1
1605 0 2 0.5897 10.459244840827946 5.069724456227017 0.6182500787036727 0 2 1
1239 0 2 0.5897 8.0846606568747 6.070969475385242 0.7023517050086574 1 -1 -1
1604 0 2 0.5897 9.641892649662577 4.395833059137158 1.8119320332398305 0 2 1
1603 0 1 -1.1794 10.565984648120498 4.580723736749939 1.421774662914881 0 2 1
1295 0 2 0.5897 9.201142197861861 6.273720353159987 2.533907322128981 0 0 0
1296 0 2 0.5897 10.083167228488472 7.160303361260351 1.5803421556391577 0 0 0
1294 0 1 -1.1794 9.21579593176719 7.04736203334734 1.9372701699723067 0 0 0
1135 0 1 -1.1794 11.57612153070502 7.798884319421574 0.6885514389262409 0 -2 -1
1237 0 1 -1.1794 7.357562357971928 5.710303867897397 0.1510200074267872 1 -1 -1
1098 0 2 0.5897 9.865336164292936 4.369195966858793 3.9929746451702663 0 1 3
1266 0 2 0.5897 12.293815044663372 4.047078186149625 1.4287235320582448 0 0 1
628 0 1 -1.1794 1.1382569193325789 9.926796325380401 1.228023500767121 0 1 0
629 0 2 0.5897 2.0364833371549764 10.232751760390085 1.3242642242266616 0 1 0
1802 0 2 0.5897 4.720990207992861 9.416329518257564 1.3022904617961413 0 0 0
1801 0 1 -1.1794 3.8422393888965147 9.535969552226959 1.731208032386834 0 0 0
1803 0 2 0.5897 4.042365134351222 10.395780742396 2.2473811913054424 0 0 0
1354 0 1 -1.1794 5.646420693967058 11.875563910395057 2.709957936360586 0 1 0
1356 0 2 0.5897 5.466624622597706 11.45538132209781 3.579971385873062 0 1 0
630 0 2 0.5897 1.0904518457278443 9.165510376826395 1.8313662825949617 0 1 0
1355 0 2 0.5897 6.513595369922762 11.515212314517337 2.497776328140233 0 1 0
1234 0 1 -1.1794 6.726073423893081 9.565551212799607 0.8414121841790569 1 0 0
1236 0 2 0.5897 6.905539142399256 9.037977540821847 1.5853647371320982 1 0 0
1235 0 2 0.5897 7.173192021071675 9.03823798040876 0.10615519548455585 1 0 0
1853 0 2 0.5897 10.813528194336591 9.447057734931773 0.6434940244605162 0 1 3
891 0 2 0.5897 8.667811534083498 8.298461087535772 2.9118939571194584 0 -2 3
890 0 2 0.5897 8.08097564464861 9.752756493193266 3.242002828406582 0 -2 3
889 0 1 -1.1794 8.150342257411666 8.849044493936661 3.5995224665432906 0 -2 3
2129 0 2 0.5897 8.908837579353463 10.865590298482486 1.576026430764594 0 3 2
1852 0 1 -1.1794 10.060846942653056 10.055382542910857 0.5681222055919661 0 1 3
2128 0 1 -1.1794 8.324078914933638 11.303327724840917 2.2494252843857887 0 3 2
2147 0 2 0.5897 11.234809188926315 11.170245242441752 1.3397749938078987 0 -1 1
2148 0 2 0.5897 12.202830562832458 11.250111809437879 2.5747035336933712 0 -1 1
2146 0 1 -1.1794 11.75029551685412 11.831258189155236 1.892792186238525 0 -1 1
68 0 2 0.5897 4.031818874241733 12.469403431102634 1.8547519595961206 0 -1 -1
67 0 1 -1.1794 3.0823499525997833 12.564914567055688 1.7246421777885477 0 -1 -1
28 0 1 -1.1794 2.381813800617577 15.216650699720153 0.8225327134766066 0 -1 2
69 0 2 0.5897 2.865525494246654 13.536465125565263 1.6831124110497324 0 -1 -1
773 0 2 0.5897 5.601647956341346 14.741206669750303 2.1544096451059898 0 0 -1
772 0 1 -1.1794 5.565535942545439 15.21953018324576 3.0355146438112435 0 0 -1
30 0 2 0.5897 1.5059233967270376 15.418740540055543 0.5093537854407223 0 -1 2
29 0 2 0.5897 3.0776094587345106 15.413986412562867 0.18479857071894096 0 -1 2
1447 0 1 -1.1794 6.340565802104245 14.351461443575866 0.6466672807154928 1 0 0
1449 0 2 0.5897 6.444377278655362 13.43867305162181 0.3175301968995261 1 0 0
774 0 2 0.5897 5.966310010791116 14.522781153793016 3.6049204433555175 0 0 -1
107 0 2 0.5897 3.4786925787217218 14.52791257843116 4.05007634004022 0 -1 0
2130 0 2 0.5897 8.740637499439924 12.193454801226125 2.3964235110613474 0 3 2
1448 0 2 0.5897 7.177943622247985 14.670339095966224 0.9763550298862571 1 0 0
781 0 1 -1.1794 8.714862999132386 15.339702028938639 1.2556932948801305 0 -1 1
782 0 2 0.5897 9.110868917835683 15.428230839375155 2.136491235655235 0 -1 1
783 0 2 0.5897 9.500048231645646 15.113502728804209 0.6608720860035613 0 -1 1
830 0 2 0.5897 11.430961219775789 14.67116529719332 0.3863777883500443 0 0 1
50 0 2 0.5897 10.742081024847202 12.700798233894266 3.4650884088835685 0 1 0
1075 0 1 -1.1794 9.959573813232764 15.676470808282117 3.6216190285660783 0 -1 2
1077 0 2 0.5897 10.407992027802916 14.879924996506176 3.941673945867203 0 -1 2
1248 0 2 0.5897 12.286888981780365 13.410844571491786 1.742775803779045 1 1 1
1643 0 2 0.5897 2.7527995780732564 16.350839756566117 2.3224665378496057 0 -1 1
1642 0 1 -1.1794 2.985623575494453 17.112930998574388 2.835884877363146 0 -1 1
1644 0 2 0.5897 3.632522537175471 17.58809944116296 2.2532300073380465 0 -1 1
76 0 1 -1.1794 4.853781095590193 18.85475106225824 1.5425985167521166 0 -1 -1
77 0 2 0.5897 4.284793205773804 19.60912099132841 1.7225248108430615 0 -1 -1
300 0 2 0.5897 6.342814690002527 18.12579769766476 2.2360570794529937 0 0 0
78 0 2 0.5897 4.853170925691572 18.76902218455145 0.5603791422590736 0 -1 -1
1328 0 2 0.5897 1.475949499926932 18.009307156920247 3.248879406871958 0 0 3
299 0 2 0.5897 6.707152870129756 16.866172464291953 3.017989493546349 0 0 1
298 0 1 -1.1794 7.0280044873199135 17.75832652172277 2.7921145762212496 0 0 1
953 0 2 0.5897 7.707354532031328 16.65210207939045 0.6903778280146183 1 -2 1
2025 0 2 0.5897 10.156923187858528 18.00984844690327 1.6951452656775445 0 0 0
2024 0 2 0.5897 8.78558900619121 18.1093115007669 2.512937163062053 0 0 0
2023 0 1 -1.1794 9.70820184759204 18.36483199827767 2.485646643139645 0 0 0
1310 0 2 0.5897 11.945957902652092 17.419302108759947 1.2771405508040141 0 1 0
1309 0 1 -1.1794 11.417677993201474 17.740274095959116 0.530880198171392 0 1 0
952 0 1 -1.1794 7.388407694389175 17.248069410251826 0.01081194560339679 1 -2 1
954 0 2 0.5897 7.606496689600573 18.168608084954464 0.2791796670164696 1 -2 1
1076 0 2 0.5897 10.542005553190858 16.422922017697807 3.422220223813769 0 -1 2
1311 0 2 0.5897 11.166755249137925 16.947377247979723 0.014672615083348663 0 1 0
2258 0 2 0.5897 6.097845465312792 1.57231454516655 4.276727432305978 1 1 -1
1110 0 2 0.5897 4.605065541431948 2.7223605792596675 6.140248397354839 0 0 -1
255 0 2 0.5897 3.5970859422784147 1.0004276345150909 7.889423852187163 0 0 0
253 0 1 -1.1794 3.0773687237281813 1.8425726843984591 7.667956117790909 0 0 0
254 0 2 0.5897 2.528197747821111 1.646714741807931 6.925957572542065 0 0 0
550 0 1 -1.1794 1.1652182643733242 1.8193863673556177 5.435621384871607 0 0 -3
1108 0 1 -1.1794 4.864273540903814 3.4964845506792726 5.680980346438885 0 0 -1
1109 0 2 0.5897 5.862704589446338 3.469572608589543 5.7362648356363835 0 0 -1
2226 0 2 0.5897 7.686233668009725 3.0906520414971754 4.2647358157213935 1 0 0
2225 0 2 0.5897 8.29826457644447 2.1009905625375125 5.367805919924033 1 0 0
1297 0 1 -1.1794 11.043904452870782 2.9136188677213464 4.223770088102586 0 -1 -1
2224 0 1 -1.1794 7.572692552672117 2.7529833230412435 5.157546111771696 1 0 0
1033 0 1 -1.1794 9.791886769050313 1.5039412002783141 6.386677919620557 0 2 -1
1035 0 2 0.5897 10.469479231483662 1.9470338647151129 5.879940317212285 0 2 -1
1034 0 2 0.5897 9.832119191319501 0.6518182334350442 5.974685372708442 0 2 -1
1485 0 2 0.5897 9.66887431167282 3.081400392922452 7.6993107110899235 1 3 1
1483 0 1 -1.1794 10.35998617911874 3.558641311888825 8.12549240841373 1 3 1
1388 0 2 0.5897 7.051472907107029 2.6504961830633853 8.143727956397461 0 1 -1
263 0 2 0.5897 9.940635691771597 0.7106923308746137 8.143163832220532 0 1 1
1589 0 2 0.5897 6.44443119511899 6.176700373368524 4.578167198699053 0 1 2
2097 0 2 0.5897 1.7937978122419582 4.855560883528246 4.723090274059889 0 1 1
1127 0 2 0.5897 4.170787986879532 5.282966817059623 5.429376078215477 0 3 1
1126 0 1 -1.1794 3.4545816479089995 5.894381842607984 5.265663731858423 0 3 1
1128 0 2 0.5897 3.6630820889867937 6.640074661187314 5.845814897169686 0 3 1
985 0 1 -1.1794 6.597171764078003 4.4061976991858955 7.78474986506789 1 0 -1
365 0 2 0.5897 3.0596759815085317 4.764656548625596 7.04741402616865 0 0 -1
980 0 2 0.5897 6.509181399506578 7.851656417313382 6.17232752081384 1 1 1
979 0 1 -1.1794 6.314206016729193 7.867986030669556 5.235835368965399 1 1 1
364 0 1 -1.1794 2.7334154741497105 4.8413609749338695 7.987758527415933 0 0 -1
497 0 2 0.5897 5.984197830905232 7.429648252666482 8.23881594834338 1 1 0
987 0 2 0.5897 5.939839393734493 5.0407521253598135 7.995467416727881 1 0 -1
2095 0 1 -1.1794 0.99293477099675 4.711129517732622 4.193799172372695 0 1 1
1588 0 1 -1.1794 6.645868556387115 5.229745335144075 4.280102051806877 0 1 2
496 0 1 -1.1794 6.786967150757994 7.872170481760012 7.856835663513836 1 1 0
986 0 2 0.5897 7.386299778207461 4.7527654372580805 8.202931255864637 1 0 -1
1097 0 2 0.5897 8.507043958758828 5.217160680001789 4.43308326586876 0 1 3
1096 0 1 -1.1794 9.459417397786513 5.237047892242001 4.1760976534466225 0 1 3
861 0 2 0.5897 10.165909406928991 6.965771677023032 4.759567976190477 0 4 -2
859 0 1 -1.1794 10.318089827154095 7.804765840751638 5.228826254170834 0 4 -2
498 0 2 0.5897 7.385112563586026 7.150533354894795 8.052594982635645 1 1 0
1899 0 2 0.5897 11.847789401206413 4.163744255472093 7.160816562245413 0 1 -2
1742 0 2 0.5897 10.220173777260978 7.6057892170675085 7.06729723294781 1 1 0
1741 0 1 -1.1794 10.05394142632252 7.7236481590947585 8.00557160022031 1 1 0
1898 0 2 0.5897 12.016928090117073 4.74697949456176 5.73218918083258 0 1 -2
1860 0 2 0.5897 1.6984762528583697 9.030835987344636 4.3782025058252305 0 0 -1
1984 0 1 -1.1794 3.941609278479085 8.284243071637613 6.789831335708522 1 0 0
1858 0 1 -1.1794 2.241516603002511 9.681714903463323 4.920964660550066 0 0 -1
1985 0 2 0.5897 3.233507127558388 8.822139413433995 6.299057499424777 1 0 0
1859 0 2 0.5897 1.5489912285708605 10.356759859927173 5.111514792221 0 0 -1
1822 0 1 -1.1794 5.014049625357033 10.470667103400887 5.157970078302385 0 1 0
1824 0 2 0.5897 5.207519473502451 9.495352188724274 5.205715322194024 0 1 0
1986 0 2 0.5897 3.6083820260349015 8.221244220026346 7.701448599450091 1 0 0
1823 0 2 0.5897 4.053925891483916 10.403624545787775 5.427608205638541 0 1 0
2000 0 2 0.5897 2.164763205743011 11.45269265497015 6.862697232867391 1 1 1
1999 0 1 -1.1794 3.0909574009293457 11.399897120141363 7.160756784645975 1 1 1
989 0 2 0.5897 6.120498696904742 9.621494603801144 8.255127666982084 1 1 0
1229 0 2 0.5897 6.177507183580833 11.269398364569968 6.199877381113712 1 0 -1
990 0 2 0.5897 5.023425931300062 10.70190912012575 7.872563990005545 1 1 0
645 0 2 0.5897 12.01419900349157 8.183353235452895 5.010777929264686 0 1 1
981 0 2 0.5897 7.102435088054197 8.236217116290696 4.770182479048324 1 1 1
860 0 2 0.5897 9.546160957063945 8.294456459742106 4.912408865351587 0 4 -2
1538 0 2 0.5897 11.808959713075236 11.470442167563315 6.960367333477027 0 0 0
1539 0 2 0.5897 10.375515563109897 11.060383685031342 6.747851649854629 0 0 0
1228 0 1 -1.1794 6.982125418308416 11.700791911194285 6.519553015093552 1 0 -1
1537 0 1 -1.1794 11.095736330962758 11.41217089038142 6.272525535758767 0 0 0
1230 0 2 0.5897 7.61983442089591 11.081661899522928 6.834778174199445 1 0 -1
2243 0 2 0.5897 12.038399102553024 10.547826254313538 4.668588851476716 1 1 1
1527 0 2 0.5897 8.9444478821714 9.281258968957374 7.939376143496257 0 0 1
1525 0 1 -1.1794 8.888112705318292 10.246058556076987 7.947021577329232 0 0 1
812 0 2 0.5897 1.3319347869194296 13.419330343523354 4.196073123709986 1 0 -1
106 0 1 -1.1794 2.924719550728561 14.229531601912628 4.721281301581042 0 -1 0
108 0 2 0.5897 3.378362995397991 14.359217039452941 5.59796243894473 0 -1 0
1106 0 2 0.5897 4.60163074727019 14.538878498868778 7.291200430821511 0 -2 0
778 0 1 -1.1794 6.316195305374074 15.08648358640687 8.017344974946486 0 1 2
1105 0 1 -1.1794 3.7191946882363243 14.215900559506668 7.18675473323547 0 -2 0
2001 0 2 0.5897 3.499282908023596 12.284540531676605 7.105456245504107 1 1 1
1014 0 2 0.5897 1.7339199057503958 15.698602978118949 5.480341396771377 0 1 0
1107 0 2 0.5897 3.2868055524783557 14.558996805592418 8.0105029773612 0 -2 0
51 0 2 0.5897 10.543040808671131 12.382398143603181 4.961937694988235 0 1 0
49 0 1 -1.1794 10.154253665696526 12.847561517571307 4.19663101630659 0 1 0
2028 0 2 0.5897 8.392502022069484 13.436900887634971 4.359756914995559 0 -3 1
780 0 2 0.5897 6.703945730183356 15.5226434628673 7.24967113944844 0 1 2
2027 0 2 0.5897 7.278169453722837 12.977258580404726 5.332665922557388 0 -3 1
779 0 2 0.5897 6.731481692960233 14.254691269061222 8.088177846304745 0 1 2
2026 0 1 -1.1794 7.5280008802913105 13.644672178037835 4.712708183918716 0 -3 1
1864 0 1 -1.1794 10.766221006570028 14.691560445821708 6.497716692484657 0 1 0
1865 0 2 0.5897 10.327167142303985 14.14673576649133 7.232069492389538 0 1 0
1866 0 2 0.5897 10.52484913902675 15.604082215055632 6.530796397574993 0 1 0
531 0 2 0.5897 7.647779003099487 15.23424374464848 5.120356388529676 0 0 0
529 0 1 -1.1794 7.336837783384536 16.035660775092566 5.586150281600883 0 0 -1
1263 0 2 0.5897 12.25175988272393 14.211934701200107 8.05303245622455 0 0 1
1730 0 2 0.5897 12.09625261329785 14.015164956353004 5.21171219524526 1 1 0
2052 0 2 0.5897 3.128458367442294 19.836103345882112 4.672673309684757 0 -2 -1
92 0 2 0.5897 4.530213721803722 16.76171580654561 4.462479531830807 0 0 0
226 0 1 -1.1794 4.424433873992546 19.669060362264528 8.295476147907914 1 -1 -1
228 0 2 0.5897 5.3056645549288275 19.818175513871314 7.925897906867422 1 -1 -1
1331 0 2 0.5897 1.4738322967868207 18.094906177241473 6.523464264239868 0 -2 1
1330 0 1 -1.1794 1.4119572111757592 19.056090044698276 6.367885811963992 0 -2 1
2050 0 1 -1.1794 3.9654059708105907 19.620690808446387 5.132784418015784 0 -2 -1
2051 0 2 0.5897 4.143083595791211 18.676203554289657 4.886432973035384 0 -2 -1
91 0 1 -1.1794 4.841330157001941 16.983032939589705 5.345527768644423 0 0 0
93 0 2 0.5897 5.805256481605987 16.750768942078064 5.281779157455517 0 0 0
1505 0 2 0.5897 3.848748108075092 17.106711524551184 6.999492575452502 1 -1 1
227 0 2 0.5897 4.154794113964954 18.69119130545549 8.312554359326956 1 -1 -1
1332 0 2 0.5897 2.354530711921517 19.347956427713648 6.388624398587687 0 -2 1
1504 0 1 -1.1794 3.876818797974868 17.04329030220856 7.990516920257764 1 -1 1
1506 0 2 0.5897 2.9787699806279853 16.972983945988336 8.279768534327248 1 -1 1
1013 0 2 0.5897 0.9460880258633171 16.853177787117847 4.881669912546794 1 1 0
1012 0 1 -1.1794 1.1528056599556993 16.420785998172764 5.764808413271399 0 1 0
2157 0 2 0.5897 7.667847918486936 18.59175440568683 4.428318379155642 0 0 1
2156 0 2 0.5897 6.909786435845316 19.895056559522985 4.402818720007306 0 0 1
2013 0 2 0.5897 10.461263815617775 18.703503064563346 4.2126622620860275 1 -1 0
1492 0 1 -1.1794 7.171740814078354 19.663272181213856 7.457957733334403 1 0 0
1494 0 2 0.5897 7.3110398346981915 18.909149937644344 8.021504104680904 1 0 0
2155 0 1 -1.1794 7.691526623570232 19.46881129817282 4.776710762487963 0 0 1
1493 0 2 0.5897 7.355238218424646 19.467844764168827 6.554553911281306 1 0 0
2012 0 2 0.5897 11.780948096200555 19.48487098587484 4.579117400329625 1 -1 0
2011 0 1 -1.1794 11.129405031478022 18.779071622207443 4.906229935939209 1 -1 0
530 0 2 0.5897 8.181874289506027 16.468955337579434 5.868318307854042 0 0 0
1325 0 2 0.5897 10.16564021310656 17.820687868006686 6.16234328699505 0 -1 -1
1324 0 1 -1.1794 9.606071589153714 17.209342658689703 6.59241162878387 0 -1 -1
1326 0 2 0.5897 9.346889286227746 17.587569073992658 7.416916753601089 0 -1 -1
66 0 2 0.5897 12.282992731453627 18.14825602208401 8.20313842192872 0 1 0
1622 0 2 0.5897 1.4940162371310959 1.6870867389765334 8.63872544790256 0 4 -2
366 0 2 0.5897 2.7555600011744144 3.994462618147729 8.459240426976713 0 0 -1
1277 0 2 0.5897 4.953252356106291 0.6529350790417784 10.024057237746248 0 0 -1
1276 0 1 -1.1794 5.310899004862589 1.4596542618956099 10.481235756133545 0 0 -1
1278 0 2 0.5897 6.113809661961129 1.5571159939941501 9.968876341816852 0 0 -1
525 0 2 0.5897 4.515503674024952 3.188714050824736 11.036501491293919 0 -1 -2
1623 0 2 0.5897 1.2012318625057712 2.158574005441254 10.09853927948845 0 4 -2
851 0 2 0.5897 2.3926733027252154 3.8236530149247723 11.290224194648266 0 0 -1
850 0 1 -1.1794 1.442787945527201 3.626508190214063 11.117872149787448 0 0 -1
852 0 2 0.5897 1.022417702567311 3.626215686662909 11.984954076086341 0 1 -1
1389 0 2 0.5897 7.727006704011364 1.2539455052161896 8.391408140352217 0 1 -1
1511 0 2 0.5897 11.771403615060265 2.006771661727396 9.139121249358965 1 1 -1
1387 0 1 -1.1794 7.501275049374959 2.0586704961659326 8.831118878637874 0 1 -1
2127 0 2 0.5897 8.382942555591043 2.2510133279430105 10.345342853814259 0 2 -1
262 0 1 -1.1794 10.151729854905723 0.31161313463294826 8.996425818262896 0 1 1
2126 0 2 0.5897 9.596800221667003 2.0695715702482667 11.294350913275654 0 2 -1
2125 0 1 -1.1794 8.783457528884794 2.61388603004777 11.16046837289212 0 2 -1
756 0 2 0.5897 11.327848277672814 0.811454625103906 11.656527411820871 1 1 -1
754 0 1 -1.1794 11.12850829595291 1.7122012876462016 11.955410739261152 1 1 -2
501 0 2 0.5897 1.8341982295398003 6.030230163956147 8.884990698587991 1 0 -1
523 0 1 -1.1794 4.037078498652954 4.027039094838998 11.068525369361128 0 -1 -2
524 0 2 0.5897 4.078329699656086 4.298358291084339 11.998989809901463 0 -1 -2
43 0 1 -1.1794 1.3031912307478837 7.428251057162953 11.78494455953408 0 0 -1
33 0 2 0.5897 4.131425890986193 5.628959009898955 9.294779032470643 0 3 2
32 0 2 0.5897 5.222015790707428 6.187860390358944 10.11423539929445 0 3 1
31 0 1 -1.1794 4.7030562491712695 6.376375917857881 9.349893490180422 0 3 1
265 0 1 -1.1794 6.392958986594595 6.305148103655324 11.914447453382031 0 1 0
489 0 2 0.5897 3.3832198794001886 7.805276593765415 12.430020974342753 1 -1 -2
488 0 2 0.5897 4.873237653998338 7.257566392476716 12.32917872327381 1 -1 -2
45 0 2 0.5897 1.5588476470076846 6.876366174267052 11.063464540415092 0 0 -1
1218 0 2 0.5897 3.546112144407268 7.947293807430734 9.604514265266541 1 -1 2
499 0 1 -1.1794 1.2745926258816231 6.691116263216743 9.298797634851542 1 0 -1
1484 0 2 0.5897 9.888801609138769 4.3432920918048525 8.503841372542116 1 3 1
554 0 2 0.5897 11.745588946098469 4.941456006586084 10.561138277141964 0 -1 1
1574 0 2 0.5897 9.306454614778145 6.4544391727965795 8.630407900871711 0 0 1
1573 0 1 -1.1794 8.775320481970283 5.654305830516974 8.938040114340442 0 0 1
1142 0 2 0.5897 9.370284869442264 4.179367370682423 11.174256152904583 0 2 -1
266 0 2 0.5897 6.987581946989263 7.055100172347048 11.598154000818525 0 1 0
1575 0 2 0.5897 9.006284936504453 5.597036659450299 9.910250334634934 0 0 1
1141 0 1 -1.1794 9.670045778238642 5.076218591615294 11.402592618463613 0 2 -1
1044 0 2 0.5897 10.160808978820254 7.28754589753753 11.512305392040851 0 1 1
1143 0 2 0.5897 9.500535133239792 5.2553417567581295 12.297685452229942 0 2 -1
267 0 2 0.5897 6.962351598353826 5.574602677146175 12.205761348879767 0 1 0
1217 0 2 0.5897 4.001852490766783 9.446450424403963 9.447467812068293 1 -1 2
1608 0 2 0.5897 1.8284158843532703 9.718130414554523 8.808829773628672 0 1 1
1216 0 1 -1.1794 3.280187636953041 8.826842614201425 9.356904927896874 1 -1 2
794 0 2 0.5897 6.183797037467697 10.265866844371503 11.133327795362442 0 1 0
793 0 1 -1.1794 5.7142601628525584 10.757462783679369 11.755552274739877 0 1 0
795 0 2 0.5897 4.9798686308965685 11.279333639480718 11.34930111322432 0 1 0
988 0 1 -1.1794 5.633488606862059 10.355616088744206 8.58794337901219 1 1 0
1606 0 1 -1.1794 0.9688667658891745 10.151047433917444 8.673432261888763 0 1 1
1743 0 2 0.5897 10.880486042663374 8.030602591057685 8.431219382895229 1 1 0
256 0 1 -1.1794 7.385598727128817 8.6996118780301 10.431681785404855 0 0 0
257 0 2 0.5897 8.332610793494835 8.845367538927906 10.5991508773699 0 0 0
1042 0 1 -1.1794 10.308729036519372 8.131107801582882 11.072084835825379 0 1 1
130 0 1 -1.1794 11.945114070971279 10.063813386095434 12.198712570187745 0 1 -1
258 0 2 0.5897 7.266765478026631 8.612465510847386 9.480151657739315 0 0 0
1526 0 2 0.5897 8.9229589566159 10.433218986084219 8.891713115019684 0 0 1
1043 0 2 0.5897 10.926796155910168 8.634733120037687 11.572007782595103 0 1 1
323 0 2 0.5897 8.656036810682656 11.648735922747731 11.178154370378211 0 -2 0
322 0 1 -1.1794 9.273115216254928 11.02344249242574 10.792332564308897 0 -2 0
324 0 2 0.5897 9.692948069906942 10.67127041903325 11.561128760742191 0 -2 0
132 0 2 0.5897 11.867135339519733 10.827838874391823 11.64901969899162 0 1 -1
1750 0 1 -1.1794 3.7225488744015656 12.114822221420448 10.650018564189578 1 -2 0
1752 0 2 0.5897 2.854277897104523 12.057525912032016 11.09400467781962 1 -2 0
1751 0 2 0.5897 3.449387795530429 12.34353877468078 9.766097760359997 1 -2 0
1873 0 1 -1.1794 2.7017342219685765 14.550190091713413 9.833656979888548 0 -1 -1
1560 0 2 0.5897 4.337042909273045 15.113792911942161 10.584983618214896 0 3 0
1874 0 2 0.5897 1.927670473115247 13.918570994720298 9.980181719069057 0 -1 -1
1558 0 1 -1.1794 5.222469054143561 15.502335915202554 10.437592963865116 0 3 0
1559 0 2 0.5897 5.120356717491064 15.901378204530934 9.52328669336226 0 3 0
712 0 1 -1.1794 1.4734730299404502 12.887534932884366 12.232840103851544 1 0 0
1875 0 2 0.5897 2.202632142892489 15.38742434118644 9.952618913924994 0 -1 -1
1842 0 2 0.5897 3.1204670684197717 14.020687982055472 12.296150961452273 0 -4 0
1253 0 2 0.5897 6.762466937534804 12.186108127901147 8.819111194204204 1 0 0
2082 0 2 0.5897 7.394211325275921 14.752117173070303 11.81095570270447 0 0 0
1252 0 1 -1.1794 7.400466679657825 12.813814329392242 9.151944919929617 1 0 0
1254 0 2 0.5897 7.036404789752014 12.918975256719643 10.036314829163747 1 0 0
943 0 1 -1.1794 10.14520682239724 13.33959333460624 8.877248703390073 1 -1 0
945 0 2 0.5897 9.23948191140581 12.974826844168714 8.762294290956953 1 -1 0
944 0 2 0.5897 10.70132287444565 12.588341159194103 9.072541833642388 1 -1 0
751 0 1 -1.1794 10.695142047203383 13.876585072114901 11.590947335211451 1 0 -1
753 0 2 0.5897 9.765526859906345 13.823775719985234 11.45572156551252 1 0 -1
752 0 2 0.5897 11.041766499494443 13.175368781691901 11.024930073925168 1 0 -1
2022 0 2 0.5897 10.186383632600911 15.04351041184223 9.450973348556415 0 -2 -2
2080 0 1 -1.1794 7.489256948296959 13.768549108761372 11.684198413711911 0 0 0
2020 0 1 -1.1794 10.010063790052845 15.998977374504507 9.544936908979153 0 -2 -2
789 0 2 0.5897 6.5663533181692415 17.76795263866567 10.981958457323323 0 -2 0
2245 0 1 -1.1794 1.438174905249466 16.986792334508916 9.149055114217683 1 0 2
787 0 1 -1.1794 5.85414120744066 17.63773042771848 11.676782911055655 0 -2 0
1844 0 2 0.5897 2.5864652261930856 18.948755239978443 11.735070049510052 0 -1 0
788 0 2 0.5897 5.475400160112228 16.78347579506639 11.34791002308491 1 -2 0
1845 0 2 0.5897 3.883606431461617 18.249840365726115 12.03553188135835 0 -1 0
2246 0 2 0.5897 1.1458359127781679 17.732242240026494 9.765003837937746 1 -1 2
1843 0 1 -1.1794 2.9778998116150097 18.368006117216297 12.333478287859698 0 -1 0
1501 0 1 -1.1794 11.731988684765112 18.924640603759062 11.72550557633795 1 1 0
1037 0 2 0.5897 7.01826640340916 16.57578949919322 8.703743441503681 0 -1 -2
1640 0 2 0.5897 9.181919975843668 19.444822724716012 10.23754087962054 0 -2 -1
1036 0 1 -1.1794 7.465757471756936 17.4230973769047 8.88589335469208 0 -1 -2
1038 0 2 0.5897 8.408617335690817 17.176544312275183 9.038049329936724 0 -1 -2
2021 0 2 0.5897 9.757194596080655 16.135720864101863 10.490209519615403 0 -2 -2
1641 0 2 0.5897 8.385862028016696 19.487667583692335 11.647599875355818 0 -2 -1
1639 0 1 -1.1794 8.531859489045447 19.022002498158557 10.833472170863189 0 -2 -1
264 0 2 0.5897 10.987817088430939 19.99722743122212 8.921670733457026 1 0 1
65 0 2 0.5897 11.392475751823678 17.147747974024625 9.045645501441014 0 1 0
64 0 1 -1.1794 11.923069365842297 17.948425951813704 9.12174154033193 0 1 0
3 0 2 0.5897 8.917182675242996 17.614541151812286 11.652500942720067 0 -1 0
1 0 1 -1.1794 9.017076039143905 16.71139136833185 11.981329197624014 0 -1 0
1503 0 2 0.5897 11.938209988338706 18.819782015985556 10.772510129440642 1 1 0
1602 0 2 0.5897 5.695482231255405 2.1771029379795412 13.57762052740701 0 1 1
803 0 2 0.5897 2.5306295521600526 2.075633873737485 13.729268079261173 0 0 0
802 0 1 -1.1794 1.6478767833651222 1.8152825182712766 14.057427119727654 0 0 0
804 0 2 0.5897 1.2630564267361883 2.4968539330172637 14.651962933560693 0 0 0
1601 0 2 0.5897 4.83345719304312 1.4145707642657332 12.549995421999618 0 1 1
1600 0 1 -1.1794 4.812134005195202 2.134991866589259 13.204752039499867 0 1 1
97 0 1 -1.1794 4.223460081543025 3.005063307967887 15.742857608785716 0 2 -2
99 0 2 0.5897 4.450460833501099 2.7431390747467743 14.840554107417754 0 2 -2
98 0 2 0.5897 3.989140587960372 3.914352604389007 15.620110345139611 0 2 -2
230 0 2 0.5897 5.871908221343116 2.8422907428926223 16.39944538346958 1 -1 -1
309 0 2 0.5897 2.6071139889977655 0.7676589664009613 16.168366344619823 0 -1 0
52 0 1 -1.1794 5.260382062625504 0.05248127227304495 15.732580934728068 0 0 -1
53 0 2 0.5897 5.610406380085484 0.020648386685808727 16.648415878498064 0 0 -1
1835 0 2 0.5897 7.7950773732224965 1.7606350631406977 12.678762863470913 0 1 -1
1836 0 2 0.5897 7.140625735202221 0.8369263878659361 13.829805748918009 0 1 -1
1834 0 1 -1.1794 7.53441419984446 1.7031308520876878 13.602931127975959 0 1 -1
755 0 2 0.5897 10.695398470834798 1.550898192333812 12.825900805628791 1 1 -1
1319 0 2 0.5897 10.737841685487375 2.1477169708495976 15.233456721196886 0 0 -1
1320 0 2 0.5897 9.36182821450744 2.026560260954654 14.512081962702553 0 1 -1
1318 0 1 -1.1794 10.051401445127514 2.6534890601242562 14.73687608193731 0 0 -1
1549 0 1 -1.1794 8.154874009758135 0.39466701680600424 16.40389326629791 0 -2 -1
1550 0 2 0.5897 7.613611584389943 1.2112295742636114 16.425479252225923 0 -2 -1
1073 0 2 0.5897 7.2666412691380735 3.91454567135565 14.399358544572396 0 0 0
1795 0 1 -1.1794 11.785868750512474 1.607188542349963 16.606095756568898 0 0 2
229 0 1 -1.1794 6.840970865992992 2.8723203186672 16.57627300424748 1 -1 -1
487 0 1 -1.1794 4.139795419247548 7.5385865939169525 12.897303449253744 1 -1 -2
1609 0 1 -1.1794 1.0497814371830327 6.300435250963514 14.378256926922974 0 1 -2
1611 0 2 0.5897 1.6516814215680673 6.890259465685796 14.871757689719116 0 1 -2
483 0 2 0.5897 3.8155099269594306 6.005781172155891 13.478474369642178 1 1 -1
481 0 1 -1.1794 3.619772478249742 5.090488506033287 13.7424729640953 1 1 -1
482 0 2 0.5897 2.8122901376380134 5.160635915349924 14.261065989421603 1 1 -1
2121 0 2 0.5897 5.08592195549546 5.830777845762107 15.881164993970236 0 0 -1
2119 0 1 -1.1794 5.896701532653828 6.4073762527282705 15.886411960173003 0 0 -1
1610 0 2 0.5897 1.1067740757204552 6.502268377800669 13.421446477449653 0 1 -2
2120 0 2 0.5897 6.460387265099417 5.921938309469874 15.23284530034744 0 0 -1
1317 0 2 0.5897 11.92920647442028 6.073914153994297 12.878267111802646 0 1 0
56 0 2 0.5897 11.308445945363694 4.130060154858357 15.310838877568798 0 0 1
55 0 1 -1.1794 12.14610498614765 4.486901478802927 15.16746010427332 0 0 1
1072 0 1 -1.1794 7.362036650167107 4.864850878466358 14.325211991292111 0 0 0
1074 0 2 0.5897 8.269603284779091 5.0070676233903235 14.471983750957536 0 0 0
468 0 2 0.5897 10.542937318852491 5.576318510367381 14.59441516664207 1 0 0
466 0 1 -1.1794 9.955631119159145 6.018729364707985 13.906787572077675 1 0 -1
467 0 2 0.5897 9.802385825915797 6.987862890820817 13.96885639429562 1 0 -1