LAMMPS (23 Jun 2022)
echo both

include		in.partitions
variable        pid world 0
include		in.temp
variable	temperature equal 260.0
variable        tempDamp equal 0.100 # this is 0.1 ps
include		in.pressure
variable        pressure equal 6079.5
variable        pressureDamp equal 1.0 #this is 1ps
include		in.seed
variable        seed world 745823

units           metal
atom_style	full
read_restart	restart.lmp.${pid}
read_restart	restart.lmp.0
Reading restart file ...
  restart file = 23 Jun 2022, LAMMPS = 23 Jun 2022
  restoring atom style full from restart
  orthogonal box = (0.88238693 0 0) to (46.568312 20.047001 20.857)
  4 by 1 by 1 MPI processor grid
Summary of lammps deepmd module ...
  >>> Info of deepmd-kit:
  installed to:       /u/sigbjobo/software/DEEPMD_FROM_SOURCE/deepmd-kit/install
  source:             v2.1.3
  source branch:       master
  source commit:      5a32c49
  source commit at:   2022-07-01 09:52:58 +0800
  surpport model ver.:1.1 
  build float prec:   double
  build with tf inc:  /u/sigbjobo/software/DEEPMD_FROM_SOURCE/tensorflow/install/include;/u/sigbjobo/software/DEEPMD_FROM_SOURCE/tensorflow/install/include
  build with tf lib:  /u/sigbjobo/software/DEEPMD_FROM_SOURCE/tensorflow/install/lib/libtensorflow_cc.so;/u/sigbjobo/software/DEEPMD_FROM_SOURCE/tensorflow/install/lib/libtensorflow_framework.so
  set tf intra_op_parallelism_threads: 0
  set tf inter_op_parallelism_threads: 0
  >>> Info of lammps module:
  use deepmd-kit at:  /u/sigbjobo/software/DEEPMD_FROM_SOURCE/deepmd-kit/install
  source:             v2.1.3
  source branch:      master
  source commit:      5a32c49
  source commit at:   2022-07-01 09:52:58 +0800
  build float prec:   double
  build with tf inc:  /u/sigbjobo/software/DEEPMD_FROM_SOURCE/tensorflow/install/include;/u/sigbjobo/software/DEEPMD_FROM_SOURCE/tensorflow/install/include
  build with tf lib:  /u/sigbjobo/software/DEEPMD_FROM_SOURCE/tensorflow/install/lib/libtensorflow_cc.so;/u/sigbjobo/software/DEEPMD_FROM_SOURCE/tensorflow/install/lib/libtensorflow_framework.so
  restoring pair style deepmd from restart
  2268 atoms
Finding 1-2 1-3 1-4 neighbors ...
  special bond factors lj:    0        0        0       
  special bond factors coul:  0        0        0       
     0 = max # of 1-2 neighbors
     0 = max # of 1-3 neighbors
     0 = max # of 1-4 neighbors
     1 = max # of special neighbors
  special bonds CPU = 0.000 seconds
  read_restart CPU = 0.007 seconds
include 	in.setup
variable	out_freq equal 500
variable	out_freq2 equal 1000
variable	out_freq3 equal 5000

timestep        0.0005

neigh_modify    delay 7 every 1

include         in.deepmd
# This is deepMD model

# create groups ###
#group ox type 2
#group hy type 1

mass 2 15.999
mass 1 1.008

pair_style      deepmd ../graph.pb
pair_coeff      * *

bond_style      none
angle_style     none
dihedral_style  none
improper_style  none
neigh_modify exclude none


neighbor        2.0 bin
neigh_modify    every 10 delay 0 check no

thermo          ${out_freq}
thermo          500
thermo_style 	custom step temp pe etotal epair emol press lx ly lz vol pxx pyy pzz pxy pxz pyz
#thermo_modify	flush yes
restart 	${out_freq} restart.lmp.${pid} restart2.lmp.${pid}
restart 	500 restart.lmp.${pid} restart2.lmp.${pid}
restart 	500 restart.lmp.0 restart2.lmp.${pid}
restart 	500 restart.lmp.0 restart2.lmp.0

include		in.dump
dump            myDump all atom ${out_freq3} dump.water.${pid}
dump            myDump all atom 5000 dump.water.${pid}
dump            myDump all atom 5000 dump.water.0
dump            myDump2 all dcd ${out_freq2} dump.dcd.${pid}
dump            myDump2 all dcd 1000 dump.dcd.${pid}
dump            myDump2 all dcd 1000 dump.dcd.0
dump_modify     myDump append yes
dump_modify     myDump2 append yes


timer           timeout 23:50:00 every 1000
New timer settings: style=normal  mode=nosync  timeout=23:50:00

fix             1 all plumed plumedfile plumed.dat outfile plumed.out
fix             3 all nph x ${pressure} ${pressure} ${pressureDamp}
fix             3 all nph x 6079.5 ${pressure} ${pressureDamp}
fix             3 all nph x 6079.5 6079.5 ${pressureDamp}
fix             3 all nph x 6079.5 6079.5 1
Resetting global fix info from restart file:
  fix style: nph, fix ID: 3
fix             4 all temp/csvr ${temperature} ${temperature} ${tempDamp} ${seed}
fix             4 all temp/csvr 260 ${temperature} ${tempDamp} ${seed}
fix             4 all temp/csvr 260 260 ${tempDamp} ${seed}
fix             4 all temp/csvr 260 260 0.1 ${seed}
fix             4 all temp/csvr 260 260 0.1 745823
Resetting global fix info from restart file:
  fix style: temp/csvr, fix ID: 4

run             40000000 upto

CITE-CITE-CITE-CITE-CITE-CITE-CITE-CITE-CITE-CITE-CITE-CITE-CITE

Your simulation uses code contributions which should be cited:

- USER-DEEPMD package:

@article{Wang_ComputPhysCommun_2018_v228_p178,
  author = {Wang, Han and Zhang, Linfeng and Han, Jiequn and E, Weinan},
  doi = {10.1016/j.cpc.2018.03.016},
  url = {https://doi.org/10.1016/j.cpc.2018.03.016},
  year = 2018,
  month = {jul},
  publisher = {Elsevier {BV}},
  volume = 228,
  journal = {Comput. Phys. Commun.},
  title = {{DeePMD-kit: A deep learning package for many-body potential energy representation and molecular dynamics}},
  pages = {178--184}
}

CITE-CITE-CITE-CITE-CITE-CITE-CITE-CITE-CITE-CITE-CITE-CITE-CITE

Generated 0 of 1 mixed pair_coeff terms from geometric mixing rule
All restart file global fix info was re-assigned
Neighbor list info ...
  update every 10 steps, delay 0 steps, check no
  max neighbors/atom: 2000, page size: 100000
  master list distance cutoff = 8
  ghost atom cutoff = 8
  binsize = 4, bins = 12 6 6
  1 neighbor lists, perpetual/occasional/extra = 1 0 0
  (1) pair deepmd, perpetual
      attributes: full, newton on
      pair build: full/bin
      stencil: full/bin/3d
      bin: standard
Per MPI rank memory allocation (min/avg/max) = 6.146 | 6.147 | 6.149 Mbytes
   Step          Temp          PotEng         TotEng         E_pair         E_mol          Press            Lx             Ly             Lz           Volume          Pxx            Pyy            Pzz            Pxy            Pxz            Pyz      
  21946500   260.61656     -353.42464     -277.05546     -353.42464      0              6494.9635      45.685925      20.047001      20.857         19102.213      7608.3881      6409.7691      5466.7331     -1880.4701      409.08144     -635.19124    
  21947000   265.39571     -349.88109     -272.11146     -349.8811       0              4551.6155      45.675106      20.047001      20.857         19097.689      2971.5818      6062.8551      4620.4095     -405.17228      1040.8287     -2183.4003    
  21947500   258.34632     -351.47557     -275.77164     -351.45196      0              5663.4591      45.695042      20.047001      20.857         19106.025      6348.481       6475.0878      4166.8086      831.0007      -1203.5125     -1086.5208    
  21948000   263.1338      -352.90328     -275.79646     -352.8821       0              3043.1342      45.764624      20.047001      20.857         19135.118      3384.9074      4138.1438      1606.3514      898.20926     -241.82334     -729.04272    
  21948500   265.51137     -351.54041     -273.73688     -351.50454      0              5108.5419      45.716037      20.047001      20.857         19114.803      6198.2587      5496.2433      3631.1238      1311.6903      1584.3414     -1250.6049    
  21949000   264.20307     -352.01328     -274.59313     -351.97305      0              5761.8707      45.779301      20.047001      20.857         19141.255      6555.6315      4151.4839      6578.4967     -377.95598      64.405146      199.18284    
  21949500   259.83178     -350.61112     -274.4719      -350.58124      0              5271.6106      45.733528      20.047001      20.857         19122.117      7843.2729      4468.4175      3503.1415      1373.2257      973.07586     -244.39261    
  21950000   262.03854     -351.12622     -274.34035     -351.11524      0              3594.782       45.689414      20.047001      20.857         19103.671      3095.589       2808.2055      4880.5515     -606.44192      726.21659     -585.24886    
  21950500   260.7395      -353.07234     -276.66713     -353.03381      0              5155.1416      45.843835      20.047001      20.857         19168.238      6077.4403      5167.4218      4220.5627      3662.4596     -313.68266     -1298.9931    
  21951000   267.6182      -352.23146     -273.81056     -352.16634      0              5953.1097      45.683927      20.047001      20.857         19101.377      5831.1731      6276.9303      5751.2256     -737.73158     -1616.5867      133.07034    
  21951500   257.60256     -351.14075     -275.65476     -351.11611      0              5199.8386      45.37843       20.047001      20.857         18973.643      6593.4722      4887.5782      4118.4654      2069.2202     -457.60937      1483.2218    
  21952000   254.77105     -348.51057     -273.85431     -348.48707      0              3822.528       45.563801      20.047001      20.857         19051.15       7109.3867      2613.8511      1744.3462     -212.34939      325.2154      -211.78968    
  21952500   259.54825     -348.30338     -272.24725     -348.31207      0              5087.4457      45.531658      20.047001      20.857         19037.71       4450.9667      6047.9767      4763.3937      27.043069      162.26666      338.47582    
  21953000   254.93065     -350.18477     -275.48174     -350.17996      0              4713.0924      45.539138      20.047001      20.857         19040.838      5130.3908      3961.2281      5047.6584     -1127.8763     -234.79098     -339.63616    
  21953500   264.96345     -349.36831     -271.72534     -349.37323      0              4966.7853      45.888913      20.047001      20.857         19187.086      6012.5028      6849.2569      2038.5963     -668.12271     -1188.7784     -505.28469    
  21954000   264.75252     -349.87894     -272.29779     -349.89988      0              3456.3784      45.897534      20.047001      20.857         19190.691      4440.3967      3267.3914      2661.3472     -602.79641     -1257.4781      405.04221    
  21954500   255.69727     -351.10084     -276.17317     -351.08457      0              4435.991       45.553261      20.047001      20.857         19046.743      4829.5061      5864.4529      2614.0138     -390.76302     -1063.5628      2813.3339    
  21955000   261.07434     -349.92794     -273.4246      -349.92664      0              7643.4194      45.453011      20.047001      20.857         19004.827      9281.5128      6654.9685      6993.7769      375.03314      85.736177     -1307.772     
  21955500   262.1729      -350.97771     -274.15246     -350.99667      0              5490.6573      45.659062      20.047001      20.857         19090.981      3886.0891      6537.3519      6048.5308      989.98271     -792.08178     -751.77966    
  21956000   267.50562     -351.24606     -272.85815     -351.22364      0              4878.1239      45.875978      20.047001      20.857         19181.678      5610.7785      2841.0781      6182.5151     -1073.4475     -1478.4877      523.95103    
  21956500   261.75017     -350.41887     -273.71749     -350.41626      0              4430.3087      45.807952      20.047001      20.857         19153.234      8304.9767      2828.0848      2157.8647     -1522.3094      13.552176     -164.98622    
  21957000   260.28276     -352.40982     -276.13845     -352.41135      0              4146.0905      45.85666       20.047001      20.857         19173.601      5532.4652      3927.8131      2977.9933     -139.25144     -197.6656       787.03049    
  21957500   257.9311      -349.87543     -274.29317     -349.87467      0              6026.5282      45.884075      20.047001      20.857         19185.063      7366.9278      5834.2816      4878.3753     -1334.2907     -246.85771     -954.0926     
  21958000   262.46823     -350.56274     -273.65095     -350.5839       0              5064.3011      45.658666      20.047001      20.857         19090.815      6265.9396      3351.8781      5575.0856     -467.06387     -1564.5495     -113.25124    
  21958500   257.88626     -348.57376     -273.00464     -348.56017      0              4310.3083      45.548761      20.047001      20.857         19044.862      6436.3879      2520.1052      3974.4318      311.41791      578.54424     -2035.8319    
  21959000   257.78381     -352.80758     -277.26848     -352.82252      0              4660.0724      46.204639      20.047001      20.857         19319.097      3918.4644      6409.0253      3652.7276      945.63256      129.88871      696.88264    
  21959500   251.46702     -350.98265     -277.29458     -350.97965      0              4571.8522      46.38943       20.047001      20.857         19396.362      7489.6563      3485.2884      2740.612      -651.51691      1303.7237      120.70486    
  21960000   259.56504     -348.69961     -272.63855     -348.67516      0              6360.743       45.891287      20.047001      20.857         19188.079      7899.3025      4187.5391      6995.3873     -471.82736     -345.93412      3229.5645    
  21960500   251.24145     -351.52125     -277.89928     -351.50262      0              4125.3575      45.718048      20.047001      20.857         19115.644      5053.18        3355.3125      3967.5801      94.399625      124.82993     -1942.568     
  21961000   258.38988     -350.33751     -274.62081     -350.33659      0              5367.8847      45.988412      20.047001      20.857         19228.689      7067.2902      5095.4638      3940.8999     -1105.6805     -342.99815     -1634.8429    
  21961500   257.99472     -351.79124     -276.19034     -351.8109       0              5821.8303      46.145694      20.047001      20.857         19294.451      7552.2946      4259.7393      5653.4571      1827.2567     -1046.4569     -1112.7463    
  21962000   254.04171     -350.50282     -276.06028     -350.52181      0              2767.2413      45.997462      20.047001      20.857         19232.472      4453.2356      2712.5734      1135.915       961.63993      3127.7788      1184.5238    
  21962500   260.75793     -351.0507      -274.64008     -351.07384      0              5658.8666      45.749615      20.047001      20.857         19128.843      6481.6123      5073.2116      5421.7758      401.30368     -1093.6838     -1193.3901    
  21963000   246.66196     -349.24255     -276.96252     -349.27285      0              4321.2243      45.674283      20.047001      20.857         19097.345      7205.5304      3417.0933      2341.0492     -1516.081      -855.30419     -631.19261    
  21963500   258.39178     -351.91991     -276.20265     -351.93851      0              5888.5842      45.8066        20.047001      20.857         19152.669      7085.6415      7177.2797      3402.8315      914.53253      330.67034     -2399.8702    
  21964000   261.00985     -350.28456     -273.80013     -350.29401      0              5549.1889      45.886482      20.047001      20.857         19186.07       7843.2044      5342.2603      3462.1021     -517.06488     -1254.1945      1305.7806    
  21964500   260.53966     -350.41708     -274.07043     -350.43237      0              6718.1326      45.855359      20.047001      20.857         19173.057      7672.6362      6923.8316      5557.93        542.30577     -1172.6622     -778.94928    
  21965000   267.61737     -351.22335     -272.8027      -351.24488      0              5129.7059      45.809139      20.047001      20.857         19153.731      6205.2163      4379.011       4804.8904      2343.048       1247.7644     -762.05205    
  21965500   270.60725     -350.60671     -271.30992     -350.62739      0              7257.0531      45.790547      20.047001      20.857         19145.957      6591.9245      7082.0192      8097.2156     -142.97615      825.27482     -217.61969    
  21966000   251.87891     -348.93354     -275.12477     -348.93183      0              4150.0914      45.807335      20.047001      20.857         19152.977      7778.9497      2652.7406      2018.5838      1166.1601     -8.4848529      9.8559164    
  21966500   260.34397     -350.32291     -274.0336      -350.34539      0              2113.6371      45.555571      20.047001      20.857         19047.709      3691.178       1720.1105      929.62294     -223.40476      1120.2142     -516.07899    
  21967000   260.78252     -351.73327     -275.31545     -351.74133      0              7624.7514      45.427552      20.047001      20.857         18994.182      9551.4588      6334.9134      6987.8821      190.42253      900.87045      555.84349    
  21967500   257.92127     -352.47456     -276.89518     -352.46548      0              5476.6899      45.657395      20.047001      20.857         19090.284      5060.1305      6446.9191      4923.02        35.151188      816.37981      2086.5209    
  21968000   254.34009     -352.17109     -277.64112     -352.1648       0              5573.7271      45.959471      20.047001      20.857         19216.588      7897.2573      2984.1419      5839.7822      49.21693       1100.0021     -283.10652    
  21968500   257.64794     -351.82945     -276.33017     -351.82396      0              5222.5421      45.897251      20.047001      20.857         19190.572      5160.8361      5797.2488      4709.5413      1299.47        162.3039       1679.6929    
  21969000   250.39844     -351.64368     -278.26874     -351.6464       0              3943.2597      45.746489      20.047001      20.857         19127.536      8310.8118      1456.811       2062.1564     -328.20614      788.75492     -330.00942    
  21969500   260.97944     -352.89359     -276.41807     -352.8864       0              3849.679       45.675486      20.047001      20.857         19097.848      3802.9256      4394.5294      3351.5819      1321.3358      1106.3133      1335.6673    
  21970000   260.03186     -349.49894     -273.30109     -349.55197      0              4565.6304      45.674712      20.047001      20.857         19097.524      5946.541       4043.4643      3706.886       58.09356       1283.7864      1401.7422    
  21970500   260.67067     -354.34916     -277.96411     -354.35677      0              4917.4368      45.902605      20.047001      20.857         19192.811      4901.1915      3435.5402      6415.5787      104.73766     -1596.8174     -209.41982    
  21971000   262.98982     -354.0948      -277.03017     -354.07924      0              4722.1656      45.602083      20.047001      20.857         19067.157      4525.4758      4421.8711      5219.1499      735.47194     -1083.4711      632.36832    
  21971500   253.55904     -354.3612      -280.0601      -354.30554      0              5352.9846      45.378433      20.047001      20.857         18973.644      6960.8154      4495.5488      4602.5895      1301.3259      325.85724      1829.799     
  21972000   253.44725     -350.20997     -275.94162     -350.23301      0              5019.8606      45.539285      20.047001      20.857         19040.899      5275.3953      3411.0795      6373.107       66.366201      1545.0281      200.78974    
  21972500   261.82789     -353.15918     -276.43504     -353.1547       0              2960.9029      45.747716      20.047001      20.857         19128.049      2922.9365      3710.456       2249.3162     -584.24722      2342.1601      422.87226    
  21973000   261.15099     -352.10789     -275.5821      -352.12258      0              5292.1282      45.639308      20.047001      20.857         19082.721      7241.5293      3365.4294      5269.4257      54.1081       -1149.3128      52.215038    
  21973500   257.49693     -353.01947     -277.56444     -353.03929      0              3704.0697      45.77709       20.047001      20.857         19140.33       4832.7755      3908.8893      2370.5444     -155.51587      676.46864     -451.80466    
  21974000   253.19086     -352.93449     -278.74128     -352.94212      0              4044.9913      45.704374      20.047001      20.857         19109.927      4873.2033      3844.1396      3417.6309      282.70251     -51.604348      1876.0171    
  21974500   257.00152     -351.17114     -275.86127     -351.17717      0              5447.0101      45.654591      20.047001      20.857         19089.111      9480.2286      4197.9791      2662.8227      1133.924      -1158.552      -823.78554    
  21975000   261.57867     -351.56615     -274.91503     -351.58817      0              6084.0177      45.769939      20.047001      20.857         19137.341      7457.932       5355.8053      5438.316      -140.70018      1775.6548     -712.41607    
  21975500   261.99738     -351.39352     -274.61971     -351.38605      0              3654.12        45.867664      20.047001      20.857         19178.201      5977.5535      4145.6742      839.13247      139.05401     -940.93278      856.69864    
  21976000   260.38181     -351.13395     -274.83355     -351.15437      0              4198.0673      46.029726      20.047001      20.857         19245.963      5840.5417      4590.0236      2163.6368      567.25747      1031.4407     -1139.9239    
  21976500   262.91536     -352.24729     -275.20448     -352.24811      0              4437.4017      45.937909      20.047001      20.857         19207.572      5337.8185      5286.7032      2687.6834      1232.3842     -412.88828      434.36111    
  21977000   266.7282      -351.21381     -273.05371     -351.23557      0              6068.1796      45.796881      20.047001      20.857         19148.605      6503.7666      6530.6211      5170.1512     -50.362803     -239.10836      372.59122    
  21977500   261.27937     -352.29816     -275.73475     -352.2947       0              4540.2624      45.793338      20.047001      20.857         19147.124      4709.8031      6043.1714      2867.8128     -328.03836      1099.2609     -478.47868    
  21978000   258.97809     -351.38367     -275.49461     -351.39701      0              3730.6027      46.028195      20.047001      20.857         19245.323      2760.0302      6912.2979      1519.4799      408.98972     -78.307544     -3290.0667    
  21978500   258.5306      -352.26306     -276.50512     -352.25613      0              3415.2195      45.999517      20.047001      20.857         19233.332      5484.887       3152.5849      1608.1867      267.16737      509.2034      -2566.8212    
  21979000   260.97861     -350.70089     -274.22561     -350.71784      0              4525.2553      45.699734      20.047001      20.857         19107.986      5198.6198      3056.1445      5321.0018      356.62168     -992.9446       598.88922    
  21979500   258.26163     -349.99244     -274.31332     -350.0192       0              6796.8463      45.643395      20.047001      20.857         19084.43       6640.5977      7768.1797      5981.7616      1831.8111      1586.7037     -1993.2435    
  21980000   260.80947     -352.43311     -276.0074      -352.50457      0              2795.952       45.811343      20.047001      20.857         19154.652      4071.4162      2239.5216      2076.9181      1020.3267     -1180.321      -493.86293    
  21980500   261.80057     -354.66405     -277.94791     -354.69235      0              6127.9207      45.959815      20.047001      20.857         19216.732      7581.2978      4903.8384      5898.6257     -904.38972     -684.46896     -765.82603    
  21981000   258.32651     -352.54256     -276.84443     -352.56101      0              5131.3746      45.793936      20.047001      20.857         19147.374      6854.4087      6051.0614      2488.6537      713.6685      -1323.429       770.88716    
  21981500   261.35866     -350.52148     -273.93483     -350.54956      0              7385.7796      45.495287      20.047001      20.857         19022.503      9168.602       5895.3305      7093.4063     -374.86765     -535.64868      302.3236     
  21982000   262.12906     -350.86489     -274.05249     -350.89886      0              5884.8709      45.819564      20.047001      20.857         19158.09       6979.3973      7103.5672      3571.6482     -24.055326      382.13652     -475.96004    
  21982500   258.83721     -349.76625     -273.91847     -349.79166      0              5529.264       45.788282      20.047001      20.857         19145.01       7641.4449      4726.4096      4219.9376      773.49133     -6.1665556      772.24511    
  21983000   269.08054     -350.05206     -271.20265     -350.07428      0              4169.766       45.807416      20.047001      20.857         19153.01       3527.493       4987.8652      3993.9397      1237.6869      1178.8251     -101.64846    
  21983500   262.33497     -351.24788     -274.37514     -351.26644      0              3693.6477      46.083939      20.047001      20.857         19268.63       6548.0949      1475.6728      3057.1753      186.6215       278.44721     -1252.5033    
  21984000   269.77152     -351.90207     -272.85018     -351.91129      0              2634.2969      46.040881      20.047001      20.857         19250.627      2078.6191      4038.7394      1785.5322      791.3073       1586.5775     -565.44449    
  21984500   268.03748     -353.51741     -274.97365     -353.53757      0              5885.058       45.784943      20.047001      20.857         19143.614      5813.5384      5910.8398      5930.7958      270.56657     -901.60268      610.44618    
  21985000   259.35406     -351.9174      -275.91816     -351.9328       0              5835.6286      45.708606      20.047001      20.857         19111.696      8798.2493      5108.186       3600.4504     -506.03181     -296.08508      850.20711    
  21985500   257.26206     -352.10409     -276.71788     -352.12594      0              5289.4485      45.880878      20.047001      20.857         19183.726      6362.5405      5222.3229      4283.4822      164.78859     -900.51727     -473.93426    
  21986000   254.70308     -351.01613     -276.37979     -351.03714      0              5403.8764      46.171986      20.047001      20.857         19305.445      5104.7989      5570.5271      5536.3033      278.17647      580.42234     -1963.5347    
  21986500   262.32615     -351.11811     -274.24795     -351.1095       0              4010.6106      45.891334      20.047001      20.857         19188.098      7069.3786      2030.7779      2931.6755      838.77416     -1408.3831     -409.28181    
  21987000   256.40574     -352.77367     -277.63839     -352.78026      0              4088.3357      45.686133      20.047001      20.857         19102.3        4907.7421      2667.6803      4689.5846     -879.31867      539.37456      44.282038    
  21987500   263.0003      -353.99085     -276.92315     -354.00553      0              3199.7819      45.906006      20.047001      20.857         19194.233      4628.3514      3600.9132      1370.081       864.0801       725.40924     -572.32095    
  21988000   260.49074     -354.40864     -278.07632     -354.44337      0              4698.8114      46.127253      20.047001      20.857         19286.741      4651.6745      4551.734       4893.0256     -414.7283       1131.5905      1031.4545    
  21988500   255.82464     -353.22992     -278.26492     -353.25672      0              5452.8508      45.941652      20.047001      20.857         19209.137      7673.3464      2723.4578      5961.7482      402.68344     -514.45716      348.4575     
  21989000   267.26954     -351.9147      -273.59598     -351.93694      0              5045.3038      45.731946      20.047001      20.857         19121.455      6503.2714      5245.6078      3387.0322      416.05343      690.1235       353.87007    
  21989500   252.55333     -353.32467     -279.31828     -353.33987      0              3619.125       45.824564      20.047001      20.857         19160.181      5247.0621      3915.7345      1694.5785      1132.7736     -1681.0434     -319.77738    
  21990000   264.581       -353.61576     -276.08486     -353.64015      0              1887.9456      46.242911      20.047001      20.857         19335.1        1882.2719      166.33047      3615.2345     -105.49551     -25.045968      1049.0593    
  21990500   263.3679      -350.71108     -273.53567     -350.73406      0              3701.712       45.931316      20.047001      20.857         19204.816      4459.6547      3654.9544      2990.5269     -1017.4397      1472.3203     -1713.9652    
  21991000   265.84025     -353.47611     -275.57621     -353.45975      0              7458.1278      45.442152      20.047001      20.857         19000.286      8742.4065      5897.5575      7734.4195      822.66452      2265.3833      853.67679    
  21991500   251.28484     -352.71789     -279.0832      -352.73362      0              6113.512       45.867608      20.047001      20.857         19178.178      7098.2915      6737.0364      4505.2082      1076.9477     -229.44638     -1996.2673    
  21992000   254.42572     -354.72196     -280.16689     -354.72819      0              5652.1829      46.122362      20.047001      20.857         19284.696      6589.7781      5579.3933      4787.3772      1972.3307      650.2512      -501.84354    
  21992500   256.67559     -356.70862     -281.49427     -356.72643      0              4460.9363      46.190215      20.047001      20.857         19313.067      6367.0165      4257.6865      2758.106       368.59615     -849.95398     -390.63543    
  21993000   250.52461     -354.26798     -280.85606     -354.27516      0              3805.9542      45.966964      20.047001      20.857         19219.721      6749.0481      4002.7921      666.02247      340.19979      2009.4817      1089.1839    
  21993500   256.40498     -353.27553     -278.14047     -353.29498      0              7693.0224      45.840381      20.047001      20.857         19166.794      10411.317      6637.2494      6030.5008     -320.46855     -214.92464      57.925631    
  21994000   256.17763     -352.82788     -277.75944     -352.84916      0              4118.5242      45.851134      20.047001      20.857         19171.29       2866.5811      5425.2823      4063.7091     -2384.2413     -155.87326      649.0607     
  21994500   252.46001     -352.4319      -278.45285     -352.4584       0              3330.8983      45.827995      20.047001      20.857         19161.615      6091.1122      1556.1608      2345.4218      252.44611     -1669.5163      426.65006    
ERROR on proc 0: Cannot open restart file restart.lmp.0: Permission denied (../write_restart.cpp:233)
Last command: run             40000000 upto
