LAMMPS (23 Jun 2022)
echo both

include		in.partitions
variable        pid world 0
include		in.temp
variable	temperature equal 260.0
variable        tempDamp equal 0.100 # this is 0.1 ps
include		in.pressure
variable        pressure equal 6079.5
variable        pressureDamp equal 1.0 #this is 1ps
include		in.seed
variable        seed world 745823

units           metal
atom_style	full
read_restart	restart.lmp.${pid}
read_restart	restart.lmp.0
Reading restart file ...
  restart file = 23 Jun 2022, LAMMPS = 23 Jun 2022
  restoring atom style full from restart
  orthogonal box = (1.0516267 0 0) to (46.399072 20.047001 20.857)
  4 by 1 by 1 MPI processor grid
Summary of lammps deepmd module ...
  >>> Info of deepmd-kit:
  installed to:       /u/sigbjobo/software/DEEPMD_FROM_SOURCE/deepmd-kit/install
  source:             v2.1.3
  source branch:       master
  source commit:      5a32c49
  source commit at:   2022-07-01 09:52:58 +0800
  surpport model ver.:1.1 
  build float prec:   double
  build with tf inc:  /u/sigbjobo/software/DEEPMD_FROM_SOURCE/tensorflow/install/include;/u/sigbjobo/software/DEEPMD_FROM_SOURCE/tensorflow/install/include
  build with tf lib:  /u/sigbjobo/software/DEEPMD_FROM_SOURCE/tensorflow/install/lib/libtensorflow_cc.so;/u/sigbjobo/software/DEEPMD_FROM_SOURCE/tensorflow/install/lib/libtensorflow_framework.so
  set tf intra_op_parallelism_threads: 0
  set tf inter_op_parallelism_threads: 0
  >>> Info of lammps module:
  use deepmd-kit at:  /u/sigbjobo/software/DEEPMD_FROM_SOURCE/deepmd-kit/install
  source:             v2.1.3
  source branch:      master
  source commit:      5a32c49
  source commit at:   2022-07-01 09:52:58 +0800
  build float prec:   double
  build with tf inc:  /u/sigbjobo/software/DEEPMD_FROM_SOURCE/tensorflow/install/include;/u/sigbjobo/software/DEEPMD_FROM_SOURCE/tensorflow/install/include
  build with tf lib:  /u/sigbjobo/software/DEEPMD_FROM_SOURCE/tensorflow/install/lib/libtensorflow_cc.so;/u/sigbjobo/software/DEEPMD_FROM_SOURCE/tensorflow/install/lib/libtensorflow_framework.so
  restoring pair style deepmd from restart
  2268 atoms
Finding 1-2 1-3 1-4 neighbors ...
  special bond factors lj:    0        0        0       
  special bond factors coul:  0        0        0       
     0 = max # of 1-2 neighbors
     0 = max # of 1-3 neighbors
     0 = max # of 1-4 neighbors
     1 = max # of special neighbors
  special bonds CPU = 0.000 seconds
  read_restart CPU = 0.007 seconds
include 	in.setup
variable	out_freq equal 500
variable	out_freq2 equal 1000
variable	out_freq3 equal 5000

timestep        0.0005

neigh_modify    delay 7 every 1

include         in.deepmd
# This is deepMD model

# create groups ###
#group ox type 2
#group hy type 1

mass 2 15.999
mass 1 1.008

pair_style      deepmd ../graph.pb
pair_coeff      * *

bond_style      none
angle_style     none
dihedral_style  none
improper_style  none
neigh_modify exclude none


neighbor        2.0 bin
neigh_modify    every 10 delay 0 check no

thermo          ${out_freq}
thermo          500
thermo_style 	custom step temp pe etotal epair emol press lx ly lz vol pxx pyy pzz pxy pxz pyz
#thermo_modify	flush yes
restart 	${out_freq} restart.lmp.${pid} restart2.lmp.${pid}
restart 	500 restart.lmp.${pid} restart2.lmp.${pid}
restart 	500 restart.lmp.0 restart2.lmp.${pid}
restart 	500 restart.lmp.0 restart2.lmp.0

include		in.dump
dump            myDump all atom ${out_freq3} dump.water.${pid}
dump            myDump all atom 5000 dump.water.${pid}
dump            myDump all atom 5000 dump.water.0
dump            myDump2 all dcd ${out_freq2} dump.dcd.${pid}
dump            myDump2 all dcd 1000 dump.dcd.${pid}
dump            myDump2 all dcd 1000 dump.dcd.0
dump_modify     myDump append yes
dump_modify     myDump2 append yes


timer           timeout 23:50:00 every 1000
New timer settings: style=normal  mode=nosync  timeout=23:50:00

fix             1 all plumed plumedfile plumed.dat outfile plumed.out
fix             3 all nph x ${pressure} ${pressure} ${pressureDamp}
fix             3 all nph x 6079.5 ${pressure} ${pressureDamp}
fix             3 all nph x 6079.5 6079.5 ${pressureDamp}
fix             3 all nph x 6079.5 6079.5 1
fix             4 all temp/csvr ${temperature} ${temperature} ${tempDamp} ${seed}
fix             4 all temp/csvr 260 ${temperature} ${tempDamp} ${seed}
fix             4 all temp/csvr 260 260 ${tempDamp} ${seed}
fix             4 all temp/csvr 260 260 0.1 ${seed}
fix             4 all temp/csvr 260 260 0.1 745823

run             40000000 upto

CITE-CITE-CITE-CITE-CITE-CITE-CITE-CITE-CITE-CITE-CITE-CITE-CITE

Your simulation uses code contributions which should be cited:

- USER-DEEPMD package:

@article{Wang_ComputPhysCommun_2018_v228_p178,
  author = {Wang, Han and Zhang, Linfeng and Han, Jiequn and E, Weinan},
  doi = {10.1016/j.cpc.2018.03.016},
  url = {https://doi.org/10.1016/j.cpc.2018.03.016},
  year = 2018,
  month = {jul},
  publisher = {Elsevier {BV}},
  volume = 228,
  journal = {Comput. Phys. Commun.},
  title = {{DeePMD-kit: A deep learning package for many-body potential energy representation and molecular dynamics}},
  pages = {178--184}
}

CITE-CITE-CITE-CITE-CITE-CITE-CITE-CITE-CITE-CITE-CITE-CITE-CITE

Generated 0 of 1 mixed pair_coeff terms from geometric mixing rule
Neighbor list info ...
  update every 10 steps, delay 0 steps, check no
  max neighbors/atom: 2000, page size: 100000
  master list distance cutoff = 8
  ghost atom cutoff = 8
  binsize = 4, bins = 12 6 6
  1 neighbor lists, perpetual/occasional/extra = 1 0 0
  (1) pair deepmd, perpetual
      attributes: full, newton on
      pair build: full/bin
      stencil: full/bin/3d
      bin: standard
Per MPI rank memory allocation (min/avg/max) = 6.148 | 6.15 | 6.153 Mbytes
   Step          Temp          PotEng         TotEng         E_pair         E_mol          Press            Lx             Ly             Lz           Volume          Pxx            Pyy            Pzz            Pxy            Pxz            Pyz      
  39239500   264.37411     -355.66737     -278.1971      -355.66737      0              5047.6064      45.347446      20.047001      20.857         18960.688      6050.0928      3996.8892      5095.8371      49.538584      202.59644      1598.5655    
  39240000   260.64696     -355.50332     -279.12523     -355.4603       0              5040.5102      45.767365      20.047001      20.857         19136.264      6660.7059      3811.9418      4648.883       2532.2323      688.82498     -236.33952    
  39240500   259.58808     -354.06213     -277.99433     -354.03438      0              4319.3364      46.018548      20.047001      20.857         19241.289      4449.4921      4103.8374      4404.6797     -182.0185      -2487.4407     -69.029391    
  39241000   264.18039     -356.98607     -279.57256     -356.94586      0              4619.3916      45.692593      20.047001      20.857         19105.001      5363.7652      5121.072       3373.3377      549.79217     -1379.9495      34.114509    
  39241500   265.9074      -354.42362     -276.50405     -354.40923      0              5896.4927      45.50853       20.047001      20.857         19028.04       5675.4466      4935.7568      7078.2747      319.62192     -1047.0206     -1903.7237    
  39242000   263.54914     -353.60496     -276.37643     -353.53961      0              3802.9009      45.512076      20.047001      20.857         19029.523      4011.7976      1820.6936      5576.2117      1747.3063      942.27947      858.28246    
  39242500   263.27567     -354.44878     -277.30039     -354.37015      0              7413.0003      45.772527      20.047001      20.857         19138.423      5341.9837      10184.575      6712.4422      522.13207     -354.3348       941.29656    
  39243000   255.84908     -354.44861     -279.47645     -354.37629      0              4581.0252      45.780983      20.047001      20.857         19141.958      2937.0026      4867.7165      5938.3564      588.61153      25.126683     -1215.6062    
  39243500   258.35411     -356.65274     -280.94652     -356.56682      0              2310.0497      45.522155      20.047001      20.857         19033.737      3361.0452      1286.2645      2282.8394      79.527862      1448.8512     -1581.4827    
  39244000   262.88431     -356.6509      -279.61718     -356.62621      0              6491.2896      45.557063      20.047001      20.857         19048.333      8764.0718      3719.8796      6989.9175     -744.10965      1691.4603      1802.8591    
  39244500   252.18846     -352.38491     -278.48543     -352.40094      0              4472.4631      45.892201      20.047001      20.857         19188.461      4416.3355      6079.8022      2921.2515     -442.63037     -214.83918      2033.3803    
  39245000   263.06642     -356.11691     -279.02983     -356.05001      0              5117.6633      45.77794       20.047001      20.857         19140.686      5748.8888      5144.7317      4459.3695      517.00239      527.97174      153.42559    
  39245500   265.49007     -356.93309     -279.1358      -356.87086      0              4472.9612      45.576759      20.047001      20.857         19056.568      6369.4614      5010.4847      2038.9374     -1460.8514      485.07541     -703.78811    
  39246000   258.68511     -355.38699     -279.58378     -355.35077      0              5516.8631      45.560286      20.047001      20.857         19049.681      6697.1894      6349.0161      3504.3839      891.62801     -1073.8566      271.10831    
  39246500   255.9892      -352.13343     -277.12021     -352.08546      0              5589.9549      45.544845      20.047001      20.857         19043.224      5425.9056      6643.7113      4700.2476     -885.46195      577.38497      638.6327     
  39247000   259.06958     -352.00642     -276.09055     -351.95225      0              4624.8285      45.782048      20.047001      20.857         19142.404      5405.4554      4559.8421      3909.188      -882.67429     -510.73135      1878.4773    
  39247500   262.70354     -354.96208     -277.98134     -354.91398      0              4470.8939      45.662644      20.047001      20.857         19092.478      5536.051       4160.5149      3716.1159     -818.46586     -1451.485      -669.79564    
  39248000   257.14022     -353.22832     -277.87781     -353.18715      0              5474.9541      45.463129      20.047001      20.857         19009.057      6271.6932      6594.5142      3558.655      -1585.2987     -1027.6186     -2158.1148    
  39248500   265.57681     -352.7866      -274.9639      -352.7545       0              4337.7041      45.630794      20.047001      20.857         19079.161      4659.8197      4353.2024      4000.0903      2453.2169      1311.2438      445.49083    
  39249000   254.94086     -350.27684     -275.57082     -350.24189      0              2877.6772      45.711158      20.047001      20.857         19112.763      3024.4078      2904.2124      2704.4116      447.96919     -1260.1514     -1334.4421    
  39249500   260.00487     -350.49734     -274.3074      -350.46711      0              5049.4778      45.545029      20.047001      20.857         19043.301      4428.7592      3806.0203      6913.6539      178.55211     -103.98338      962.16453    
  39250000   264.81103     -347.80637     -270.20807     -347.7791       0              6918.8184      45.36424       20.047001      20.857         18967.71       11235.557      5249.1397      4271.7588      171.91143      1069.7793      463.8618     
  39250500   258.90383     -351.4705      -275.6032      -351.42632      0              5255.1694      45.755096      20.047001      20.857         19131.134      5520.349       6924.1051      3321.0539      2470.1348      338.31035     -955.87811    
  39251000   251.70507     -351.94423     -278.1864      -351.91489      0              4652.809       45.894051      20.047001      20.857         19189.234      4387.1929      5410.4347      4160.7995      627.3416       835.69607     -1179.0757    
  39251500   258.92795     -352.02199     -276.14762     -351.97854      0              4431.3627      45.541643      20.047001      20.857         19041.886      5284.7489      3103.7896      4905.5495      287.21807      1485.0267     -748.52782    
  39252000   263.76106     -351.80459     -274.51396     -351.75224      0              6929.0992      45.28348       20.047001      20.857         18933.942      6614.9937      6715.3202      7456.9837      434.19679      1383.9592     -1178.5602    
  39252500   263.17136     -351.65056     -274.53273     -351.62459      0              7328.2804      45.666107      20.047001      20.857         19093.926      8841.2926      8094.9498      5048.5987     -125.10857     -829.64946     -1073.5804    
  39253000   263.29975     -355.82379     -278.66834     -355.76663      0              2382.2409      45.879287      20.047001      20.857         19183.061      1373.8668      2951.5399      2821.3161      1362.5268      355.63741      67.71887     
  39253500   258.74146     -355.70299     -279.88327     -355.64708      0              6204.1431      45.712183      20.047001      20.857         19113.192      5043.6603      7160.7501      6408.0191     -43.457272     -200.97464     -2002.0762    
  39254000   258.97924     -356.4495      -280.56011     -356.3769       0              5839.6246      45.576982      20.047001      20.857         19056.661      8371.8595      5743.2517      3403.7625     -290.71032     -2344.6422      1249.4955    
  39254500   264.19182     -354.67987     -277.26301     -354.65005      0              3242.3884      45.858827      20.047001      20.857         19174.506      2500.3814      6417.69        809.09384     -1066.7674      87.201927      489.99831    
  39255000   257.28118     -353.61574     -278.22393     -353.5906       0              3977.9065      45.956092      20.047001      20.857         19215.175      3100.2637      4327.8042      4505.6516     -225.00058      345.0571      -588.74804    
  39255500   265.38118     -354.77853     -277.01316     -354.74487      0              5178.4026      45.704708      20.047001      20.857         19110.066      8208.6792      2174.5017      5152.0269      761.22877      667.23124      783.78543    
  39256000   268.66905     -355.99339     -277.26456     -355.95986      0              5298.8928      45.844825      20.047001      20.857         19168.652      9556.4576      2103.5209      4236.6999      153.10794      1080.0772      1190.8687    
  39256500   259.42361     -354.47516     -278.45555     -354.44001      0              4651.1391      46.047085      20.047001      20.857         19253.221      4901.7866      4654.1292      4397.5015     -334.46803     -129.5461      -389.86693    
  39257000   263.93913     -355.42584     -278.08303     -355.37126      0              6319.6255      45.961757      20.047001      20.857         19217.544      9477.5602      4043.5318      5437.7845      1275.307       582.39773      553.062      
  39257500   254.25002     -354.78949     -280.28591     -354.75399      0              5994.7792      45.883555      20.047001      20.857         19184.846      8125.5729      5611.5986      4247.1662      208.03635      272.03188      2670.6271    
  39258000   260.37252     -355.29145     -278.99378     -355.24674      0              4961.1282      45.609405      20.047001      20.857         19070.218      8150.4263      3570.4658      3162.4924     -267.42987     -309.81737     -1389.8915    
  39258500   261.3498      -353.99222     -277.40817     -353.96395      0              5800.4991      45.609384      20.047001      20.857         19070.209      6869.0106      6966.8513      3565.6356     -47.507686      1472.9723      2302.7238    
  39259000   255.72795     -353.65254     -278.71588     -353.64014      0              6011.1744      45.895531      20.047001      20.857         19189.853      5338.2635      5547.8489      7147.4108     -1425.7154     -27.299338     -701.32696    
  39259500   256.38212     -355.39364     -280.26529     -355.36851      0              5512.387       46.069772      20.047001      20.857         19262.707      7763.0974      5829.4652      2944.5984      656.5394       1321.0133     -196.67664    
  39260000   262.05006     -356.64975     -279.8605      -356.63793      0              5828.1288      45.758189      20.047001      20.857         19132.428      9024.5771      4745.6422      3714.1671     -576.14875      117.72832      1917.1082    
  39260500   250.33313     -355.33631     -281.98051     -355.30093      0              5490.3813      45.797567      20.047001      20.857         19148.893      5330.7358      7466.5808      3673.8274      1345.6818      553.98181     -904.18002    
  39261000   255.20981     -357.23435     -282.44951     -357.19159      0              4166.1215      45.946372      20.047001      20.857         19211.111      4231.8132      4108.1011      4158.4501      650.75947      1051.444       1022.2787    
  39261500   257.82131     -355.31643     -279.76635     -355.30255      0              5508.7562      45.60372       20.047001      20.857         19067.841      5664.0577      5896.8919      4965.3191      904.4259       1880.6837      442.23172    
  39262000   262.33717     -355.14131     -278.26793     -355.09442      0              6317.8084      45.459606      20.047001      20.857         19007.584      7491.694       5264.1808      6197.5504      1104.0561      96.407105     -1939.6521    
  39262500   251.0899      -355.85715     -282.27958     -355.84307      0              5431.9015      45.846781      20.047001      20.857         19169.47       4601.6361      5549.926       6144.1423      208.08532      2263.5675     -1517.289     
  39263000   257.63438     -353.95393     -278.45861     -353.93236      0              5661.0407      46.015399      20.047001      20.857         19239.972      7087.6844      2784.1934      7111.2442      628.34796     -247.80552      1029.1627    
  39263500   264.25759     -353.8023      -276.36617     -353.77904      0              2779.3545      45.824253      20.047001      20.857         19160.05       3132.07        3753.9283      1452.0652      645.08854      316.99657      803.1733     
  39264000   255.16693     -353.23122     -278.45895     -353.19067      0              4631.1141      46.000216      20.047001      20.857         19233.624      6328.9704      4166.1628      3398.2092     -619.34785      2179.1113      458.0419     
  39264500   270.31678     -353.10156     -273.8899      -353.07052      0              6073.8544      45.89554       20.047001      20.857         19189.857      8632.5842      5778.095       3810.8841      1517.9266      76.213588      1112.5198    
  39265000   256.53171     -352.27676     -277.10457     -352.22326      0              4959.8794      45.620379      20.047001      20.857         19074.806      3408.5813      8482.1461      2988.9108      275.45355     -1256.5786      138.96647    
  39265500   269.8537      -352.81628     -273.74031     -352.75832      0              5684.0111      45.610048      20.047001      20.857         19070.487      7496.7944      4888.7801      4666.4588      771.22039     -800.28829      195.68759    
  39266000   261.40323     -355.06498     -278.46527     -355.00182      0              4938.3616      45.826358      20.047001      20.857         19160.931      7482.0293      4092.7019      3240.3535      548.59177      583.93632      556.50395    
  39266500   264.18301     -353.31733     -275.90306     -353.29398      0              2060.6539      45.734349      20.047001      20.857         19122.46       822.18308      2094.5867      3265.1918     -2208.7963      80.210119     -471.21817    
  39267000   263.75892     -354.49292     -277.20291     -354.42444      0              5931.9786      45.37492       20.047001      20.857         18972.175      6291.7946      5866.2434      5637.8977     -1414.2971      1543.76       -853.70959    
  39267500   260.21175     -355.1188      -278.86824     -355.05317      0              4328.6073      45.366905      20.047001      20.857         18968.824      5556.0169      4100.4146      3329.3904     -511.69586      187.24987      358.7228     
  39268000   260.9569      -354.5007      -278.03178     -354.47359      0              4119.0289      45.745489      20.047001      20.857         19127.118      5511.556       4520.4804      2325.0504      529.67155      521.8867      -175.19406    
  39268500   255.11004     -355.6329      -280.8773      -355.58158      0              5369.2386      45.777747      20.047001      20.857         19140.605      4916.5419      6593.9943      4597.1796     -838.02963     -1346.5444      1312.5861    
  39269000   266.79835     -355.90425     -277.7236      -355.85077      0              6357.7538      45.612122      20.047001      20.857         19071.354      7452.7439      7274.6837      4345.8337     -172.03893      951.37522     -1524.96      
  39269500   270.61857     -353.66108     -274.36098     -353.59372      0              4938.4125      45.597272      20.047001      20.857         19065.145      6492.5866      1103.8157      7218.8352      2194.4311     -1598.5337     -95.696506    
  39270000   259.78965     -353.98114     -277.85427     -353.91594      0              6546.0063      45.705087      20.047001      20.857         19110.225      7141.4975      6106.6723      6389.8489      444.88515      1590.4565     -361.12127    
  39270500   266.37236     -353.94199     -275.88617     -353.91072      0              4559.0938      45.732984      20.047001      20.857         19121.889      6029.2101      3854.0931      3793.9783     -258.15064     -290.03372     -412.74176    
  39271000   262.78266     -355.24077     -278.23685     -355.19327      0              4500.1367      45.628905      20.047001      20.857         19078.371      4683.7816      3541.4613      5275.1673     -674.10303      866.1887       42.320387    
  39271500   253.85265     -353.52453     -279.13739     -353.48039      0              6243.3359      45.334564      20.047001      20.857         18955.302      7181.4411      7169.2341      4379.3324      96.061161      42.737399     -896.48451    
  39272000   265.54401     -354.14543     -276.33234     -354.10316      0              4451.8733      45.471038      20.047001      20.857         19012.364      2899.3539      4655.537       5800.729      -290.85351      1406.6315      1037.8939    
  39272500   263.36074     -354.08515     -276.91183     -354.03121      0              4600.3844      45.715955      20.047001      20.857         19114.769      5419.3611      3358.8444      5022.9477      1467.0853     -1924.0147     -844.7995     
  39273000   248.69619     -353.62071     -280.74458     -353.56322      0              6892.7206      45.686907      20.047001      20.857         19102.623      6748.4085      6357.6511      7572.1022      929.21444     -1666.2953      1670.8414    
  39273500   255.71694     -356.23858     -281.30514     -356.20784      0              3061.7109      45.644312      20.047001      20.857         19084.814      5667.3363      1732.4477      1785.3486      559.60606     -926.86363     -337.82138    
  39274000   262.25316     -358.47131     -281.62254     -358.3992       0              4756.0054      45.73836       20.047001      20.857         19124.137      7051.714       4856.077       2360.2251     -1440.5834     -119.70942     -2185.546     
  39274500   256.9137      -357.06637     -281.78225     -357.00293      0              3973.3159      45.675655      20.047001      20.857         19097.919      4278.0415      3988.2516      3653.6545      1848.5166     -60.707411     -718.38022    
  39275000   261.81799     -355.31745     -278.59621     -355.24671      0              3617.2421      45.47748       20.047001      20.857         19015.058      3962.6767      3604.1917      3284.8579     -924.09139      904.82419      404.90824    
  39275500   258.59147     -355.16341     -279.38765     -355.09288      0              4607.1222      45.660258      20.047001      20.857         19091.481      7144.6499     -162.91996      6839.6369      573.3141       2153.4652     -190.16538    
  39276000   259.61571     -356.64495     -280.56905     -356.58761      0              5060.4941      45.71331       20.047001      20.857         19113.663      7145.5828      4318.7071      3717.1924      362.67061     -1210.9932     -885.315      
  39276500   260.74787     -356.13779     -279.73013     -356.06709      0              4217.2184      45.661402      20.047001      20.857         19091.959      6471.8423      1441.0104      4738.8025     -208.33271     -1005.4373      1514.2672    
  39277000   259.09595     -355.1231      -279.1995      -355.05506      0              5817.5531      45.603958      20.047001      20.857         19067.941      6958.5261      4425.8274      6068.3057      825.62317      1761.5595     -2311.1966    
  39277500   260.16587     -352.43483     -276.19771     -352.35172      0              4484.3236      45.36109       20.047001      20.857         18966.393      6110.1846      3865.7008      3477.0855     -1051.5535      585.60956     -576.451      
  39278000   262.72562     -354.24532     -277.25811     -354.2239       0              3618.8154      45.553304      20.047001      20.857         19046.761      4871.7797      4413.6462      1571.0201      513.36254     -205.57947      260.8214     
  39278500   259.22949     -355.02675     -279.06401     -354.96016      0              6365.0041      45.518361      20.047001      20.857         19032.151      8012.5848      5155.6642      5926.7631     -373.43177     -213.10795      1402.9428    
  39279000   263.32978     -352.45679     -275.29254     -352.39903      0              4233.5096      45.552068      20.047001      20.857         19046.244      7459.5769      279.60177      4961.3501      2357.724       280.81438     -1579.8371    
  39279500   265.406       -357.04582     -279.27317     -356.96971      0              4959.4268      45.52999       20.047001      20.857         19037.013      2960.2101      6261.6026      5656.4677     -1075.3351     -214.22015      1013.5259    
  39280000   254.99628     -354.06018     -279.33792     -353.9717       0              4763.7197      45.47704       20.047001      20.857         19014.874      3970.2401      5374.629       4946.29        201.38314      40.506579     -1231.9445    
  39280500   250.64152     -353.37977     -279.93359     -353.31602      0              5381.5078      45.475191      20.047001      20.857         19014.1        5837.297       5289.5408      5017.6855      947.78062      624.79135     -393.07629    
  39281000   264.18678     -355.35366     -277.93829     -355.2909       0              5992.4602      45.465725      20.047001      20.857         19010.143      9447.1718      4502.5982      4027.6106     -989.30201      1069.6682     -662.65586    
  39281500   263.05399     -355.09701     -278.01358     -355.02266      0              4407.2703      45.772756      20.047001      20.857         19138.519      4998.9331      5609.4641      2613.4138     -451.70757     -1568.5486      110.54954    
  39282000   263.88645     -355.53968     -278.21231     -355.46812      0              4209.1647      45.708421      20.047001      20.857         19111.619      5509.3856      2879.0289      4239.0797      1204.201       104.30586      594.43128    
  39282500   264.46827     -354.7205      -277.22264     -354.68544      0              3935.0249      45.326357      20.047001      20.857         18951.87       4221.8948      3659.08        3924.1         154.49839      1703.7208      425.52403    
  39283000   258.43128     -352.43399     -276.70516     -352.35821      0              5456.9772      45.458026      20.047001      20.857         19006.924      6588.9155      4758.6104      5023.4057      533.52166      349.96002      993.79957    
  39283500   259.68539     -355.68996     -279.59364     -355.61139      0              5282.6029      45.637401      20.047001      20.857         19081.924      7470.9485      3712.727       4664.1332      688.60595     -643.21748     -882.53934    
  39284000   259.47132     -354.57677     -278.54317     -354.51584      0              3669.0412      45.639795      20.047001      20.857         19082.925      5660.3645      4099.9177      1246.8415     -307.027       -892.84754     -2005.9161    
  39284500   258.96129     -356.33084     -280.4467      -356.23797      0              5618.4472      45.582374      20.047001      20.857         19058.916      5400.5714      6604.5157      4850.2545      1078.6538      1707.9272      877.68314    
  39285000   256.52087     -355.88164     -280.71262     -355.80067      0              5925.7032      45.387978      20.047001      20.857         18977.635      6533.4151      6490.8228      4752.8716      457.2036      -1994.2274      1283.8805    
  39285500   260.47557     -354.90462     -278.57674     -354.83573      0              5549.9229      45.358039      20.047001      20.857         18965.117      7420.6351      4433.188       4795.9455     -978.45344      485.31597      937.71215    
  39286000   261.4865      -353.08856     -276.46446     -353.03658      0              7314.7926      45.470021      20.047001      20.857         19011.939      5880.4327      9647.1435      6416.8018      1667.3027     -2318.1381     -1433.0773    
  39286500   264.33321     -353.9141      -276.45581     -353.84202      0              5169.4689      45.224851      20.047001      20.857         18909.428      6572.5239      2945.2588      5990.624       404.44355     -722.28243     -172.49618    
  39287000   262.05756     -351.14939     -274.35795     -351.10588      0              7035.3907      45.125751      20.047001      20.857         18867.993      9193.4251      7266.3836      4646.3633      707.14574      540.42437      1654.9838    
  39287500   258.2255      -354.36082     -278.6923      -354.31151      0              7495.283       45.526066      20.047001      20.857         19035.372      7398.4685      6447.0688      8640.3118      696.9948       771.52276     -400.11446    
  39288000   259.3495      -353.45534     -277.45744     -353.39904      0              3839.2264      45.810664      20.047001      20.857         19154.368      6875.5116     -75.606127      4717.7737      1445.7116      300.99781      1764.028     
  39288500   269.64406     -353.11197     -274.09743     -353.07123      0              5759.0579      45.47327       20.047001      20.857         19013.297      6462.9555      5742.5281      5071.6901      571.0322      -1401.067      -1379.7968    
  39289000   270.59915     -350.30754     -271.01312     -350.25072      0              7067.3474      45.385997      20.047001      20.857         18976.807      8366.674       5727.7673      7107.6008      796.29576     -890.69049      1091.4671    
  39289500   262.35755     -352.32933     -275.44997     -352.30183      0              3870.274       45.508418      20.047001      20.857         19027.993      4199.3352      3480.7699      3930.717       537.92081     -839.56604      1340.9387    
  39290000   252.3714      -350.51329     -276.56021     -350.492        0              3490.643       45.565524      20.047001      20.857         19051.87       6655.9446      883.26225      2932.7222     -119.05347      400.37127      366.29204    
  39290500   261.7911      -351.02836     -274.315       -351.00274      0              6658.5723      45.367295      20.047001      20.857         18968.987      8388.8187      6455.1495      5131.7488      853.61315     -2219.1195      953.37028    
  39291000   259.07445     -351.7623      -275.845       -351.68949      0              5495.0672      45.321497      20.047001      20.857         18949.838      5651.3789      3988.1687      6845.6539      325.0216       532.00552     -635.88831    
  39291500   263.76028     -355.51058     -278.22018     -355.43615      0              6794.7867      45.334072      20.047001      20.857         18955.096      6609.7065      7732.5145      6042.139       586.16635     -1442.8488      886.79862    
  39292000   270.20823     -354.64592     -275.46606     -354.5842       0              5350.585       45.341488      20.047001      20.857         18958.196      7765.6957      3812.2086      4473.8506      352.58066     -1297.0052     -2730.7843    
  39292500   253.02261     -351.69916     -277.55525     -351.66821      0              2919.322       45.316175      20.047001      20.857         18947.613      671.4356       4636.5389      3449.9915     -817.50394     -620.17506      1380.6182    
  39293000   258.3343      -352.21245     -276.51204     -352.16802      0              4512.2543      45.400317      20.047001      20.857         18982.794      4441.7572      6333.1162      2761.8894     -922.61348     -640.4895      -2788.2192    
  39293500   267.31449     -352.37483     -274.04293     -352.31128      0              6822.0055      45.353277      20.047001      20.857         18963.126      7640.8578      5082.0743      7743.0843     -107.92382     -1174.8043     -1121.9207    
  39294000   255.91268     -353.81266     -278.82187     -353.77826      0              4050.0651      45.40178       20.047001      20.857         18983.406      2205.6829      7251.7468      2692.7655      244.28632      1204.1548     -701.68101    
  39294500   261.23703     -351.84191     -275.2909      -351.78381      0              8432.6255      45.490859      20.047001      20.857         19020.652      8276.0415      7203.7593      9818.0758     -31.797774      36.653679      1729.2632    
  39295000   258.39928     -353.18636     -277.46691     -353.1725       0              5945.9669      45.64403       20.047001      20.857         19084.695      7979.8884      5037.0206      4820.9918      44.466727      443.67396     -858.23761    
  39295500   264.66349     -351.24526     -273.69019     -351.20837      0              6062.2387      45.631397      20.047001      20.857         19079.414      7572.9654      4997.8797      5615.8709      1092.3121      167.8864       1032.0921    
  39296000   258.78655     -351.42094     -275.588       -351.36854      0              6556.6161      45.652219      20.047001      20.857         19088.12       8649.3472      5808.2393      5212.2619     -144.19158     -125.00736      835.32181    
  39296500   251.39313     -352.51506     -278.84864     -352.45206      0              6096.7581      45.721595      20.047001      20.857         19117.127      7500.2068      5571.6812      5218.3863      1338.8984      3226.6189      2209.6184    
  39297000   256.98495     -352.42246     -277.11745     -352.3817       0              4929.5445      45.561694      20.047001      20.857         19050.269      6761.3142      6048.577       1978.7424      856.58826     -954.92555     -1739.3958    
  39297500   256.3341      -352.55905     -277.44476     -352.52867      0              5039.6533      45.48961       20.047001      20.857         19020.129      7142.9476      4433.2769      3542.7353      276.34537     -1497.7627      917.21503    
  39298000   267.09881     -353.64993     -275.38123     -353.61224      0              5910.0378      45.528379      20.047001      20.857         19036.339      5907.0136      5403.0082      6420.0916     -1730.5026      150.22917      145.84649    
  39298500   266.35439     -355.28359     -277.23304     -355.22925      0              5121.2815      45.639307      20.047001      20.857         19082.721      6415.6123      2620.22        6328.0122     -1633.8007     -1224.9226      1996.8557    
  39299000   264.70055     -353.18394     -275.61801     -353.15048      0              3370.8082      45.802308      20.047001      20.857         19150.875      2854.4296      4397.386       2860.609      -1751.9624     -794.25769      233.42798    
  39299500   262.60992     -354.35734     -277.40403     -354.34147      0              5839.453       45.746156      20.047001      20.857         19127.396      6249.5537      5643.9985      5624.8068     -469.93614     -534.4956      -1155.5963    
  39300000   256.43736     -351.76922     -276.62467     -351.70019      0              5827.6715      45.384956      20.047001      20.857         18976.372      5292.8947      7519.9227      4670.1971     -1101.6651     -602.28911      464.00436    
  39300500   254.84721     -351.63626     -276.95768     -351.59044      0              3320.0103      45.602255      20.047001      20.857         19067.229      4356.6995      2975.7868      2627.5446     -870.76515      18.135006      2174.3476    
  39301000   255.25662     -349.80957     -275.01102     -349.78425      0              5384.0582      45.784415      20.047001      20.857         19143.393      6270.3702      4991.1934      4890.6109      12.218188      1463.2898      361.66127    
  39301500   261.7358      -351.2665      -274.56934     -351.24289      0              4002.186       45.539689      20.047001      20.857         19041.068      5329.2869      3213.0856      3464.1855      896.97041      60.890477     -864.95706    
  39302000   260.8988      -352.15314     -275.70125     -352.15875      0              7937.5429      45.393984      20.047001      20.857         18980.146      8591.6258      8238.0189      6982.9839     -906.40859      1161.9986     -743.59402    
  39302500   268.60207     -350.38656     -271.67736     -350.37088      0              4331.0772      45.6433        20.047001      20.857         19084.39       5545.9899      4206.3133      3240.9283      2047.2478      1595.6336      816.13465    
  39303000   261.04948     -353.04642     -276.55038     -353.01589      0              5834.5309      45.951178      20.047001      20.857         19213.12       7123.8504      4711.6982      5668.0439     -45.624865      386.94691      429.52231    
  39303500   271.20001     -353.47699     -274.0065      -353.44525      0              5500.3986      45.909744      20.047001      20.857         19195.796      5211.2253      6236.9927      5052.9779      113.99132      831.08726     -563.65356    
  39304000   256.98623     -352.66197     -277.35659     -352.62525      0              3477.2132      45.645144      20.047001      20.857         19085.161      4101.9593      3850.08        2479.6004      219.25105     -408.57882      172.43862    
  39304500   254.31966     -354.93298     -280.40899     -354.89315      0              6039.584       45.586863      20.047001      20.857         19060.793      4807.5438      6601.3155      6709.8928      421.80885      1630.3669      993.42872    
  39305000   252.58059     -352.91961     -278.90522     -352.8653       0              6225.2646      45.578731      20.047001      20.857         19057.393      7137.5688      4658.2691      6879.956      -1150.4285      1514.8765      29.645909    
  39305500   257.21777     -350.42494     -275.05171     -350.40014      0              3798.9703      45.814811      20.047001      20.857         19156.103      4139.173       2992.741       4264.9968     -129.24374      342.59832      413.75063    
  39306000   265.62272     -352.53546     -274.69931     -352.51941      0              5472.4041      46.086477      20.047001      20.857         19269.691      6088.3         5256.4989      5072.4135     -1276.1297      421.96395      2030.4524    
  39306500   258.0641      -353.27828     -277.65704     -353.27473      0              4908.8561      45.999486      20.047001      20.857         19233.319      6564.9539      4402.1978      3759.4165      755.43324      1719.5053     -438.88519    
  39307000   264.80791     -355.1937      -277.59631     -355.16544      0              5677.0186      45.747504      20.047001      20.857         19127.96       7612.4588      4660.1972      4758.3999      384.15471      884.48624     -215.32877    
  39307500   258.79449     -355.10889     -279.27363     -355.11141      0              5428.5552      45.895588      20.047001      20.857         19189.877      4271.1519      6750.3978      5264.1158      1276.3036      799.12374     -6.8248416    
  39308000   261.21953     -352.5499      -276.00403     -352.5129       0              6020.5999      45.86855       20.047001      20.857         19178.572      9362.9294      3904.5344      4794.3359     -1639.7965      710.27744      1198.9249    
  39308500   257.01439     -354.21466     -278.90103     -354.16143      0              5495.1136      45.79286       20.047001      20.857         19146.924      6292.9919      5710.8064      4481.5426      426.76973      1194.2024     -216.11955    
  39309000   260.97087     -353.90348     -277.43047     -353.825        0              4715.4548      45.890147      20.047001      20.857         19187.602      6900.8246      3198.3332      4047.2065     -1783.6086      4.6243757     -512.24875    
  39309500   260.32015     -356.02684     -279.74451     -355.95675      0              5836.8527      45.949717      20.047001      20.857         19212.509      4679.6116      7526.7048      5304.2418      2071.4258     -970.33379     -237.51099    
  39310000   256.79401     -354.91145     -279.66239     -354.86746      0              5822.3488      46.044982      20.047001      20.857         19252.342      3585.0412      8342.4214      5539.5839      7.335386       496.9993       1327.0262    
  39310500   255.87168     -353.86355     -278.88477     -353.81549      0              2448.8152      45.78741       20.047001      20.857         19144.646      4352.155       3186.5072     -192.21643      1600.9751     -77.582061     -820.28745    
  39311000   263.32134     -353.55211     -276.39034     -353.4823       0              6212.1789      45.320825      20.047001      20.857         18949.557      4864.497       7130.3967      6641.6429      1381.6547      444.31548      1543.2487    
  39311500   269.93859     -352.63683     -273.53598     -352.56964      0              5229.9138      45.767078      20.047001      20.857         19136.144      6839.2945      3884.176       4966.2707      1351.5034     -1708.8051      367.7061     
  39312000   264.93876     -355.02        -277.38427     -354.97067      0              3798.3232      46.287181      20.047001      20.857         19353.61       6442.0814      2854.6507      2098.2374     -493.13556      813.42319      2604.3651    
  39312500   257.45236     -353.07546     -277.63348     -353.02758      0              5257.5409      46.010298      20.047001      20.857         19237.84       6209.9973      3747.2717      5815.3537      205.23855      1700.8347     -500.70264    
  39313000   260.99706     -350.43843     -273.95774     -350.37676      0              7541.8963      45.545226      20.047001      20.857         19043.383      9365.1093      5611.3468      7649.2327      562.47322     -100.71919     -300.28067    
  39313500   259.86443     -352.11418     -275.96539     -352.06922      0              3340.9729      45.550527      20.047001      20.857         19045.6        3781.822       3790.0411      2451.0557      880.18511     -224.78114      1413.199     
  39314000   261.86609     -354.20023     -277.46489     -354.14791      0              4770.7141      45.780984      20.047001      20.857         19141.959      5195.3012      4297.6222      4819.2189      206.91599      950.85755     -232.76842    
  39314500   261.52071     -352.50963     -275.8755      -352.44793      0              5086.1263      45.724553      20.047001      20.857         19118.364      8311.1096      4374.9797      2572.2895     -776.96225     -502.36196     -45.825248    
  39315000   260.82569     -351.66259     -275.23212     -351.59154      0              4944.9771      45.462976      20.047001      20.857         19008.993      5911.1119      3770.8338      5152.9855     -1283.6247      619.38464     -1511.0698    
  39315500   258.85161     -352.78387     -276.93187     -352.72772      0              4299.1975      45.497538      20.047001      20.857         19023.444      3484.3083      6122.4405      3290.8436      1271.2895     -983.06971     -36.901072    
  39316000   251.76229     -355.1452      -281.3706      -355.08086      0              5817.0544      45.654659      20.047001      20.857         19089.14       6208.9864      5930.3875      5311.7894      713.45652      547.56717     -1204.5484    
  39316500   259.64612     -356.64838     -280.56356     -356.59484      0              7355.5635      45.356645      20.047001      20.857         18964.534      9434.1005      5365.1766      7267.4136      2382.836      -398.10578      1500.4112    
  39317000   253.81917     -351.74073     -277.3634      -351.69498      0              6176.5628      45.240678      20.047001      20.857         18916.046      6123.8899      7802.7907      4603.0078      1118.683      -455.75247     -458.23075    
  39317500   261.77732     -349.70346     -272.99413     -349.69485      0              5400.6848      45.592181      20.047001      20.857         19063.016      5740.1461      5837.7494      4624.1588     -620.51906     -738.82627      1194.4233    
  39318000   261.44296     -354.53511     -277.92376     -354.48262      0              1904.0084      45.848019      20.047001      20.857         19169.987      4599.2173     -111.77406      1224.5819      985.07752     -643.69871     -674.53262    
  39318500   252.93267     -352.98788     -278.87033     -352.9595       0              5680.1913      45.86023       20.047001      20.857         19175.093      5177.4846      5992.9244      5870.1648      581.83779     -617.77914     -1209.3971    
  39319000   256.78375     -351.36714     -276.1211      -351.31518      0              7367.8128      45.649436      20.047001      20.857         19086.956      9160.2759      7438.136       5505.0265     -256.6447       1425.1533     -305.5611     
  39319500   259.54099     -352.34039     -276.28638     -352.28372      0              4916.9404      45.564967      20.047001      20.857         19051.638      3512.6145      5607.5867      5630.62        338.60313     -101.52941      792.05054    
  39320000   254.36263     -351.72676     -277.19018     -351.64583      0              6189.6072      45.708346      20.047001      20.857         19111.587      8074.0448      5174.8759      5319.901       181.36015      1153.272       253.54877    
  39320500   260.18772     -353.89415     -277.65063     -353.82382      0              6075.7796      45.640694      20.047001      20.857         19083.301      6019.3256      7302.0077      4906.0056     -1.659679      -194.91059      64.278033    
  39321000   254.58419     -351.80985     -277.20835     -351.74576      0              4824.8562      45.629578      20.047001      20.857         19078.653      5991.833       5024.2285      3458.5071      1418.2726      2603.6931      1383.6722    
  39321500   255.90392     -352.55758     -277.56935     -352.48336      0              5052.6669      45.666814      20.047001      20.857         19094.222      7741.4365      1970.7831      5445.7811      208.74656     -1251.3852     -627.38078    
  39322000   261.29042     -348.94035     -272.3737      -348.84789      0              5229.1807      45.750064      20.047001      20.857         19129.031      5499.5588      6382.8505      3805.1327     -235.48431      457.45303     -139.90722    
  39322500   263.85535     -353.68673     -276.36847     -353.61736      0              5426.6168      45.781516      20.047001      20.857         19142.181      7109.8685      5081.3377      4088.6444     -469.50798     -144.27037     -1848.5615    
  39323000   261.13261     -353.08848     -276.56807     -353.03053      0              2756.6774      45.774812      20.047001      20.857         19139.378      3936.5096      3255.5679      1077.9549     -1154.7195      5.4575552      1858.6864    
  39323500   267.68567     -350.61761     -272.17694     -350.54999      0              6772.8157      45.389683      20.047001      20.857         18978.348      6973.186       7748.2843      5596.9768     -690.87021      956.26411     -483.61129    
  39324000   259.29058     -353.19225     -277.21162     -353.17177      0              6307.6         45.689678      20.047001      20.857         19103.782      5661.386       6641.4931      6619.9209     -849.2475      -2002.8537     -483.86753    
  39324500   255.87319     -352.77449     -277.79526     -352.73777      0              3434.3158      45.82717       20.047001      20.857         19161.27       3468.0441      4502.7263      2332.177      -237.83745      137.24941      972.76208    
  39325000   262.70856     -350.81664     -273.83442     -350.78898      0              5959.8274      45.613028      20.047001      20.857         19071.733      7849.6072      5807.0929      4222.7822      460.41346     -861.65871     -1732.5878    
  39325500   262.14993     -351.86496     -275.04645     -351.84561      0              7066.1795      45.381465      20.047001      20.857         18974.912      7827.489       7888.4971      5482.5524      111.13616      376.77807     -1571.6776    
  39326000   256.80845     -354.06382     -278.81054     -354.03817      0              8230.3324      45.436606      20.047001      20.857         18997.968      9787.1204      6205.3596      8698.5171      2114.3361     -846.86417      848.74805    
  39326500   255.28134     -352.94714     -278.14135     -352.9205       0              3660.2311      45.734679      20.047001      20.857         19122.598      4978.3243      1182.0106      4820.3584     -708.4646       188.64816      97.644236    
  39327000   258.67918     -353.93589     -278.13441     -353.89579      0              7352.03        45.942328      20.047001      20.857         19209.42       7152.498       9039.3561      5864.236       1401.5624      430.85584      728.29621    
  39327500   257.34118     -350.72135     -275.31196     -350.67617      0              4062.6908      45.771093      20.047001      20.857         19137.823      5213.2842      4047.9098      2926.8784      204.76694      317.47486      1186.5925    
  39328000   261.86351     -352.57263     -275.83805     -352.53953      0              6003.0886      45.463212      20.047001      20.857         19009.092      6914.0286      6049.3981      5045.8393     -350.88778     -163.5287       1465.8927    
  39328500   253.88181     -356.14596     -281.75028     -356.13303      0              6369.8935      45.560352      20.047001      20.857         19049.708      8619.2842      7106.2359      3384.1603     -384.57119      46.202113     -416.0424     
  39329000   253.25792     -354.57033     -280.35746     -354.52098      0              5447.1143      45.583564      20.047001      20.857         19059.413      3301.2949      6892.6933      6147.3546     -974.84418      2376.1773     -46.927753    
  39329500   257.10252     -356.83625     -281.49679     -356.78448      0              5606.1077      45.579692      20.047001      20.857         19057.794      5199.6906      6889.0598      4729.5728      1139.2569      1187.8843      1024.9936    
  39330000   258.2811      -352.5992      -276.91438     -352.54202      0              5270.5253      45.35399       20.047001      20.857         18963.424      6155.8746      4591.8747      5063.8265     -118.71187     -1014.6228     -784.17422    
  39330500   258.30727     -353.70535     -278.01286     -353.65217      0              5352.3698      45.496017      20.047001      20.857         19022.808      7530.4325      4379.1236      4147.5533     -410.51252      458.27631      1102.565     
  39331000   257.71843     -354.92911     -279.40917     -354.90384      0              2775.5841      45.827686      20.047001      20.857         19161.486      1566.1941      4358.42        2402.138      -264.94714     -603.77257      892.21318    
  39331500   256.63067     -351.67994     -276.47875     -351.67828      0              7251.9967      45.625517      20.047001      20.857         19076.955      9795.6775      6239.297       5721.0155      1318.8976      538.41493     -1718.2475    
  39332000   259.45624     -351.68054     -275.65137     -351.67044      0              5953.8005      45.707134      20.047001      20.857         19111.08       5464.1558      6926.6141      5470.6315     -1816.2613      749.55754      613.50547    
  39332500   261.24524     -352.00667     -275.45326     -351.97523      0              4421.965       45.682296      20.047001      20.857         19100.695      4944.8805      4561.3468      3759.6676     -48.463415     -664.76346     -858.03192    
  39333000   256.00274     -352.95931     -277.94212     -352.9427       0              5413.2986      45.673593      20.047001      20.857         19097.057      6394.1804      5509.0977      4336.6176     -333.11004     -623.97412     -1600.2344    
  39333500   256.50366     -351.48154     -276.31757     -351.4842       0              5801.555       45.70795       20.047001      20.857         19111.422      7612.1038      5541.4336      4251.1277      617.20743     -1935.9344      313.32958    
  39334000   260.09596     -353.25909     -277.04246     -353.23535      0              3512.1794      45.9157        20.047001      20.857         19198.286      5699.9632      1616.4079      3220.167      -1634.6798      283.35627     -1520.406     
  39334500   259.86821     -352.61499     -276.46509     -352.56246      0              4848.709       45.87885       20.047001      20.857         19182.879      5104.5512      4724.4396      4717.1362     -483.34339     -744.50785      1256.1068    
  39335000   256.52377     -351.39282     -276.22295     -351.39445      0              3250.9989      45.733504      20.047001      20.857         19122.106      4527.309       2404.5087      2821.179      -138.3434      -92.177365      419.92769    
  39335500   255.02385     -351.71189     -276.98155     -351.7112       0              5138.6076      45.606042      20.047001      20.857         19068.812      6306.1418      3645.7814      5463.8997     -1807.0694     -2103.8103     -1578.8826    
  39336000   257.473       -353.11816     -277.67013     -353.06977      0              5616.1795      45.624759      20.047001      20.857         19076.638      7167.4434      3685.0428      5996.0523      888.26612      2180.2767      1961.0116    
  39336500   260.62753     -352.93581     -276.56341     -352.91486      0              6495.651       45.714955      20.047001      20.857         19114.351      8240.8533      6911.8024      4334.2974     -74.854578     -1635.8758      17.752087    
  39337000   253.75933     -351.85214     -277.49234     -351.79761      0              6320.5832      45.79049       20.047001      20.857         19145.933      4489.7293      7714.7588      6757.2615      446.84845     -603.54174     -406.82896    
  39337500   256.74699     -352.96286     -277.72758     -352.91699      0              5980.4351      45.663747      20.047001      20.857         19092.94       5196.0332      5111.1438      7634.1281     -641.4089      -611.4752       137.01683    
  39338000   260.41827     -354.95362     -278.64253     -354.89803      0              7085.92        45.575091      20.047001      20.857         19055.871      8595.6277      5465.6844      7196.448       885.44706      626.81188     -1250.0846    
  39338500   262.40655     -353.46259     -276.56888     -353.42061      0              6359.2888      45.735432      20.047001      20.857         19122.912      6644.2906      6791.7653      5641.8107      269.52501     -1504.8658     -648.66554    
  39339000   258.74827     -349.75546     -273.93374     -349.73886      0              4614.0548      45.939262      20.047001      20.857         19208.138      5591.1002      2712.0643      5538.9999     -540.50108     -61.749038     -1407.255     
  39339500   262.50345     -351.39127     -274.46916     -351.36718      0              4043.2992      46.031321      20.047001      20.857         19246.63       3245.6086      5041.1887      3843.1004      1187.4045     -519.16128     -632.63963    
  39340000   262.5325      -353.08986     -276.15924     -353.05066      0              4020.6246      45.854751      20.047001      20.857         19172.802      3188.126       4620.9432      4252.8045      76.923021      302.12422     -273.53808    
  39340500   258.32056     -352.2141      -276.51771     -352.15931      0              6433.1982      45.400645      20.047001      20.857         18982.931      7235.1308      6524.4056      5540.0583      81.279469      1323.1211     -950.81229    
  39341000   255.03643     -351.49341     -276.75938     -351.41549      0              3568.4925      45.720906      20.047001      20.857         19116.839      3757.2267      3288.5228      3659.7279     -572.00404     -535.27641      1035.8135    
  39341500   264.14591     -353.70249     -276.29909     -353.661        0              4449.2137      46.056076      20.047001      20.857         19256.98       4836.6961      3729.489       4781.4561      544.48674     -1142.6002     -1024.2459    
  39342000   259.45645     -354.13112     -278.10188     -354.06464      0              5455.5962      45.898015      20.047001      20.857         19190.892      6412.1396      5985.4267      3969.2224      40.738389     -1345.4525      2196.5526    
  39342500   254.78829     -353.10433     -278.44302     -353.05266      0              4468.0831      45.786996      20.047001      20.857         19144.472      8233.7934      2230.9344      2939.5215     -1201.2509      699.17491      471.07269    
  39343000   257.88759     -353.54573     -277.97622     -353.5007       0              6203.6917      45.823421      20.047001      20.857         19159.703      8297.9773      4417.9562      5895.1416     -960.39454      168.75288     -15.268395    
  39343500   257.44502     -352.76794     -277.32812     -352.72355      0              5783.896       46.051438      20.047001      20.857         19255.041      5188.946       6351.445       5811.2971      772.10193     -323.82395      339.96336    
  39344000   258.67994     -354.90338     -279.10169     -354.85387      0              5456.7611      45.94176       20.047001      20.857         19209.182      8399.8983      4588.6151      3381.7699     -707.01936      730.50863      1524.4445    
  39344500   257.80714     -351.55578     -276.00985     -351.53824      0              4676.3094      45.670338      20.047001      20.857         19095.695      5672.6904      4368.4577      3987.7801      707.19402      1643.3116     -540.48282    
  39345000   269.81683     -352.43704     -273.37187     -352.41531      0              5973.6486      45.427128      20.047001      20.857         18994.005      6384.2001      6756.822       4779.9236      57.135464      1542.9182      895.39505    
  39345500   261.32021     -354.15981     -277.58443     -354.1281       0              3920.3921      45.62583       20.047001      20.857         19077.086      3988.2763      4288.0555      3484.8445      1159.8199      940.80823     -1150.9549    
  39346000   262.29456     -351.02068     -274.15978     -350.97214      0              5249.93        45.761818      20.047001      20.857         19133.945      5959.1641      5148.6272      4641.9986     -514.85249     -360.15977      412.31027    
  39346500   263.4544      -353.60603     -276.40526     -353.54886      0              5871.0162      45.886803      20.047001      20.857         19186.204      7886.7581      6294.8984      3431.3922     -270.3699       211.18437      948.50594    
  39347000   262.84974     -351.96908     -274.9455      -351.97172      0              6062.2258      45.695365      20.047001      20.857         19106.16       6981.9792      4941.7403      6262.9578     -295.49669     -115.8967      -740.70145    
  39347500   260.03612     -351.62622     -275.42712     -351.5697       0              5643.3923      45.457579      20.047001      20.857         19006.736      7795.2137      4634.6881      4500.275      -913.66964      1194.2498     -1906.6308    
  39348000   260.13557     -351.93556     -275.70731     -351.90823      0              4294.4696      45.891247      20.047001      20.857         19188.062      4523.1038      5513.1697      2847.1352      669.58942     -1903.0788      234.89398    
  39348500   259.50466     -353.11921     -277.07584     -353.05824      0              6339.9589      45.909021      20.047001      20.857         19195.494      5140.3089      7121.5949      6757.9729     -130.24816     -676.85927     -137.16191    
  39349000   258.25694     -352.6109      -276.93316     -352.54394      0              5454.6261      45.790673      20.047001      20.857         19146.01       5995.9038      6264.3464      4103.628       609.84248     -930.231       -504.36307    
  39349500   259.18517     -354.23691     -278.28716     -354.1855       0              4706.2603      45.627591      20.047001      20.857         19077.822      4587.7186      5409.0696      4121.9926     -218.72533     -926.33208      482.90909    
  39350000   262.00328     -356.44985     -279.67431     -356.39355      0              5426.8584      45.298525      20.047001      20.857         18940.233      8028.77        3291.4211      4960.3842     -1284.447      -358.37254     -2005.3096    
  39350500   263.11347     -354.64328     -277.54242     -354.58339      0              5135.1016      45.128271      20.047001      20.857         18869.046      4184.6337      6457.893       4762.778      -2245.5833     -1001.7007      568.96866    
  39351000   253.90972     -353.68082     -279.27696     -353.6371       0              7207.132       45.551829      20.047001      20.857         19046.144      8165.6047      7428.1724      6027.6188      98.132076     -829.5141       326.52607    
  39351500   255.8746      -355.61592     -280.63629     -355.56899      0              5331.7773      45.663566      20.047001      20.857         19092.864      6340.5242      2137.3438      7517.4639     -278.1101      -54.482393      584.49486    
  39352000   256.04357     -355.1181      -280.08895     -355.04265      0              7179.769       45.366574      20.047001      20.857         18968.685      6949.4366      7221.4853      7368.3853     -1570.0542      160.47729      1982.4006    
  39352500   255.69956     -353.62141     -278.69307     -353.56341      0              5444.8073      45.321704      20.047001      20.857         18949.924      7927.3215      3416.8376      4990.2629      382.03345     -783.67122     -359.43924    
  39353000   264.57382     -355.98415     -278.45536     -355.92552      0              5323.7361      45.600584      20.047001      20.857         19066.53       5574.2686      5106.199       5290.7407     -1559.7504      1632.3407     -117.15589    
  39353500   257.96802     -354.54985     -278.95677     -354.49921      0              7007.1873      45.66649       20.047001      20.857         19094.087      8172.5395      5888.3826      6960.6397     -1187.6551     -1929.521       100.57971    
  39354000   260.98378     -352.50142     -276.02462     -352.4728       0              6064.6802      45.477513      20.047001      20.857         19015.071      6558.4246      6201.7085      5433.9075      147.26783     -523.94549     -624.92568    
  39354500   265.01207     -353.76826     -276.11104     -353.68921      0              4930.5927      45.283151      20.047001      20.857         18933.805      4500.8123      7389.433       2901.5328     -2923.0422      2932.1558     -1252.6358    
  39355000   260.19653     -353.82487     -277.57876     -353.75365      0              4641.7438      45.436774      20.047001      20.857         18998.038      4336.6529      4993.2827      4595.2958     -38.752812     -148.47965     -317.39183    
  39355500   251.27604     -353.19387     -279.56176     -353.11346      0              4132.6248      45.55739       20.047001      20.857         19048.47       3094.7004      5055.3226      4247.8513     -533.72183     -210.81645     -649.7725     
  39356000   260.86623     -353.8523      -277.40996     -353.81174      0              5809.2809      45.320579      20.047001      20.857         18949.454      5513.0837      5061.5466      6853.2124      676.12306     -1523.7271     -677.83675    
  39356500   256.99828     -354.79602     -279.48711     -354.72623      0              4930.827       45.348254      20.047001      20.857         18961.026      5090.409       5845.8026      3856.2693     -1664.607       736.39045     -575.18661    
  39357000   248.93611     -354.98141     -282.03497     -354.92709      0              4339.7559      45.641013      20.047001      20.857         19083.434      6688.418       2977.5195      3353.3302      1012.1555     -346.79141     -1382.4733    
  39357500   257.45616     -353.78794     -278.34485     -353.75133      0              5876.186       45.355672      20.047001      20.857         18964.127      6298.2621      5556.7788      5773.5171     -586.46557      195.53469     -448.78066    
  39358000   263.28441     -355.01207     -277.86111     -354.97398      0              7195.052       45.452907      20.047001      20.857         19004.783      8718.2046      6460.9647      6405.9867     -209.60912     -1010.3429     -148.47715    
  39358500   263.23421     -354.14444     -277.00819     -354.09948      0              6096.8776      45.586596      20.047001      20.857         19060.681      6577.5922      6551.2879      5161.7526      827.68974      1993.6874     -816.91927    
  39359000   259.41189     -353.69485     -277.67867     -353.66005      0              5524.1803      45.623247      20.047001      20.857         19076.006      6445.8184      5672.5488      4454.1738     -738.03248     -1015.714      -2064.878     
  39359500   258.45076     -353.45226     -277.71772     -353.40172      0              4288.6169      45.615673      20.047001      20.857         19072.839      6116.0012      2910.8637      3838.9859     -787.77854      1395.5204      438.45653    
  39360000   258.06271     -352.98764     -277.36681     -352.9785       0              5396.6515      45.446485      20.047001      20.857         19002.098      5965.9935      5485.3418      4738.6193     -133.16214     -1081.9289     -564.16131    
  39360500   253.8984      -352.33642     -277.93588     -352.32456      0              6790.1465      45.490543      20.047001      20.857         19020.52       6048.5277      6784.6301      7537.2819      657.06492     -663.08491      391.54797    
  39361000   260.80648     -353.06935     -276.64451     -353.03316      0              5203.4321      45.589115      20.047001      20.857         19061.734      5936.1796      4898.7548      4775.3618      314.10816     -289.25822      1046.9926    
  39361500   255.46365     -352.17806     -277.31884     -352.15436      0              5199.3898      45.551492      20.047001      20.857         19046.003      4944.6723      6002.6691      4650.828       49.731576     -687.19854     -904.87825    
  39362000   257.15081     -351.73122     -276.37762     -351.7112       0              5757.1038      45.456199      20.047001      20.857         19006.159      6026.8654      4538.4331      6706.013      -1126.5679      299.80865      848.06404    
  39362500   255.00401     -353.9772      -279.25267     -353.93667      0              6800.5945      45.253362      20.047001      20.857         18921.349      7870.358       6270.2902      6261.1354     -207.55958      499.30783     -989.16135    
  39363000   261.96784     -354.69949     -277.93433     -354.66687      0              5708.6405      45.189616      20.047001      20.857         18894.696      8727.3423      3542.5018      4856.0775     -2221.2202      643.47731      2088.3717    
  39363500   264.16607     -354.1551      -276.74579     -354.13253      0              6416.0344      45.236809      20.047001      20.857         18914.428      7487.7217      3529.1583      8231.2232      383.62184     -55.32937      -814.11013    
  39364000   260.93013     -352.24826     -275.78719     -352.20803      0              7146.9561      45.454677      20.047001      20.857         19005.523      7021.4538      7709.1874      6710.2272      693.56951     -837.81629      270.02484    
  39364500   264.60768     -350.44393     -272.90522     -350.41331      0              4678.5476      45.647211      20.047001      20.857         19086.025      7610.1303      3842.6998      2582.8128     -1167.3314      1186.4612     -593.36963    
  39365000   259.91242     -351.36351     -275.20065     -351.33709      0              5147.7614      45.678537      20.047001      20.857         19099.124      6202.0662      6716.7101      2524.5079     -1180.9644      260.12677      180.29463    
  39365500   269.97865     -353.88185     -274.76927     -353.8791       0              4358.7504      45.616914      20.047001      20.857         19073.358      5173.6438      2944.1512      4958.4561     -484.31968     -1334.6563      1380.4671    
  39366000   263.1321      -355.64346     -278.53713     -355.61004      0              5295.1954      45.190214      20.047001      20.857         18894.946      6753.0315      2808.9058      6323.6488     -1269.3365      842.00691      428.0624     
  39366500   261.31034     -353.6827      -277.11022     -353.65359      0              2580.3688      45.193356      20.047001      20.857         18896.26       3113.753       4331.3149      296.0383      -1067.2818      307.28242      768.28676    
  39367000   257.44587     -353.69442     -278.25435     -353.66414      0              6373.706       45.618306      20.047001      20.857         19073.94       7316.2097      6844.3134      4960.5948     -1535.9091      1597.4538     -459.96025    
  39367500   257.41307     -354.58807     -279.15761     -354.57132      0              5358.0294      45.706552      20.047001      20.857         19110.837      7715.3962      5797.8473      2560.8447      903.48902      992.72746      842.77351    
  39368000   260.78332     -354.55055     -278.13249     -354.51559      0              3744.2109      45.662934      20.047001      20.857         19092.6        4049.7771      3945.8866      3236.9691     -599.12395      265.22234     -481.76213    
  39368500   258.44266     -353.92221     -278.19005     -353.90418      0              6400.1483      45.743187      20.047001      20.857         19126.155      7092.3776      5619.3352      6488.732      -1303.7942     -69.875227      1878.7498    
  39369000   258.73826     -352.92238     -277.1036      -352.91348      0              5035.0368      45.873191      20.047001      20.857         19180.512      5439.1997      5528.9431      4136.9677     -107.17729      777.53501     -312.20437    
  39369500   259.46724     -354.57785     -278.54545     -354.54602      0              4052.2795      45.712756      20.047001      20.857         19113.431      4551.7157      3961.8798      3643.2431     -287.60462      337.52248     -1346.1088    
  39370000   263.32403     -353.87435     -276.71178     -353.8617       0              5631.2583      45.343262      20.047001      20.857         18958.938      4971.1571      7265.5941      4657.0237      294.42987     -504.50709      1253.3988    
  39370500   257.39071     -357.05545     -281.63154     -356.99729      0              7035.466       45.419297      20.047001      20.857         18990.73       5896.979       8198.9488      7010.47        646.64194      1630.2583     -226.97054    
  39371000   255.68304     -357.29649     -282.37299     -357.2725       0              4480.3549      45.808196      20.047001      20.857         19153.336      4916.4203      4534.7924      3989.8519     -1580.4008     -1213.0356      300.20052    
  39371500   258.29904     -354.75739     -279.06732     -354.73133      0              6379.078       45.716358      20.047001      20.857         19114.937      7183.3591      6043.1761      5910.6987     -52.516795     -586.14087      476.19738    
  39372000   261.18133     -352.80374     -276.26906     -352.8001       0              4825.0758      45.539635      20.047001      20.857         19041.046      5425.1601      5193.8688      3856.1984     -852.37059      186.66672     -919.0375     
  39372500   263.74618     -353.29082     -276.00455     -353.28329      0              5995.0057      45.670556      20.047001      20.857         19095.787      6541.7781      6259.2386      5184.0003     -922.09391     -130.96968      425.02639    
  39373000   253.53274     -352.93683     -278.64343     -352.94329      0              6319.4045      45.799147      20.047001      20.857         19149.553      6037.7809      6944.3788      5976.0538     -1077.0721      1164.3697     -903.85008    
  39373500   262.31693     -356.04        -279.17255     -356.05669      0              6806.3159      45.470793      20.047001      20.857         19012.262      7334.2034      6453.8482      6630.8962      423.59972      266.25243      515.46973    
  39374000   267.49864     -354.74219     -276.35633     -354.69796      0              7372.3908      45.328525      20.047001      20.857         18952.777      9039.9306      6478.3605      6598.8811     -358.79507     -739.21981     -1126.9946    
  39374500   255.89319     -355.79733     -280.81224     -355.76993      0              6754.5757      45.58491       20.047001      20.857         19059.976      6890.7953      5806.1698      7566.7621      868.25251      1284.0912     -294.56983    
  39375000   255.44447     -354.51517     -279.66158     -354.49912      0              4782.4382      45.607531      20.047001      20.857         19069.435      3008.6344      5944.3498      5394.3303     -916.96916     -124.77511     -1470.1129    
  39375500   259.08496     -354.42496     -278.50458     -354.4204       0              6018.3807      45.463459      20.047001      20.857         19009.195      4618.3485      6783.2513      6653.5423     -248.60319      1428.5542      613.8619     
  39376000   258.14364     -353.75728     -278.11274     -353.72215      0              5835.3876      45.379185      20.047001      20.857         18973.958      5718.2742      5217.5674      6570.3212     -432.06145      387.32263     -753.7709     
  39376500   260.56037     -353.54018     -277.18746     -353.53768      0              5610.6614      45.547006      20.047001      20.857         19044.128      5153.5631      6121.5168      5556.9043     -247.68569      645.70544      6.0893518    
  39377000   261.93964     -351.29905     -274.54216     -351.31909      0              5261.2658      45.661883      20.047001      20.857         19092.16       3925.9805      7718.5087      4139.308      -1311.1928      762.77772     -558.24025    
  39377500   259.47848     -351.52733     -275.49164     -351.5355       0              6204.9875      45.329118      20.047001      20.857         18953.024      6438.6922      7374.5435      4801.7268     -802.35614      459.9867       1308.5229    
  39378000   252.81991     -352.34108     -278.25657     -352.30068      0              4833.6387      45.292591      20.047001      20.857         18937.752      4665.7721      3655.8093      6179.3346     -1924.2444      554.7296      -286.53404    
  39378500   248.62357     -355.34148     -282.48663     -355.32779      0              5828.8954      45.496432      20.047001      20.857         19022.982      6502.7871      5874.4217      5109.4773     -370.35622     -1556.2881      532.15528    
  39379000   251.93344     -352.41391     -278.58916     -352.38108      0              6990.589       45.462312      20.047001      20.857         19008.716      8036.7352      7561.0634      5373.9685     -635.93363     -1003.6428      151.50384    
  39379500   263.88123     -354.02177     -276.69593     -353.98281      0              4187.4091      45.669879      20.047001      20.857         19095.503      4198.8762      3502.2986      4861.0525      110.86893      471.67302     -320.217      
  39380000   265.77761     -353.14453     -275.26298     -353.12086      0              4871.8618      45.657804      20.047001      20.857         19090.455      7299.4115      2265.9606      5050.2132     -147.15229     -749.23037      646.79173    
  39380500   263.39357     -354.35557     -277.17263     -354.33129      0              4422.2857      45.595545      20.047001      20.857         19064.423      6140.5807      3711.8336      3414.4428     -1241.3425     -1285.109      -1082.1609    
  39381000   256.76414     -354.33464     -279.09434     -354.31441      0              6382.2115      45.52138       20.047001      20.857         19033.413      7947.562       4140.9243      7058.148       280.16176      306.50675     -342.14997    
  39381500   262.69495     -354.6716      -277.69338     -354.65169      0              5064.3508      45.444208      20.047001      20.857         19001.146      2974.6299      6776.2809      5442.1417     -795.66955     -185.20739     -383.06794    
  39382000   257.92233     -351.6831      -276.10341     -351.63982      0              4346.448       45.482842      20.047001      20.857         19017.3        3770.665       5543.2127      3725.4664      7.1336312     -988.20064      751.10179    
  39382500   258.41009     -352.34583     -276.62321     -352.30513      0              4733.8346      45.487058      20.047001      20.857         19019.062      5261.2799      4045.8859      4894.338      -824.06571      554.57516      783.82922    
  39383000   262.25053     -353.31354     -276.46555     -353.26554      0              5058.9093      45.429457      20.047001      20.857         18994.978      6155.7821      4911.8909      4109.0549     -90.373793     -21.946471      329.21777    
  39383500   261.61205     -353.8169      -277.156       -353.77531      0              6441.618       45.364183      20.047001      20.857         18967.686      6204.2219      7544.312       5576.3202     -1246.2903     -237.98209     -1147.4816    
  39384000   267.02775     -354.86649     -276.61861     -354.82965      0              2592.2993      45.651217      20.047001      20.857         19087.7        4077.5498      3054.6961      644.65206     -881.42959      1196.4053      5.535378     
  39384500   254.93943     -351.39608     -276.69048     -351.36609      0              5400.3799      45.913704      20.047001      20.857         19197.452      5166.9719      8117.7634      2916.4043      1034.1693     -273.20665     -1443.556     
  39385000   255.03749     -351.78172     -277.04739     -351.74734      0              5808.832       45.547875      20.047001      20.857         19044.491      4071.7404      6992.308       6362.4476     -916.73143      608.85486     -426.45872    
  39385500   255.58929     -352.90579     -278.00976     -352.86265      0              6890.8032      45.249792      20.047001      20.857         18919.857      10505.203      6730.7859      3436.4203      34.913568     -282.72254      1377.2753    
[...]
  39964500   267.19296     -351.88696     -273.59067     -351.89413      0              4345.1642      45.554303      20.047001      20.857         19047.179      4810.2638      4770.299       3454.93        1305.4377      2169.8778     -547.30737    
  39965000   255.85123     -352.04094     -277.06815     -352.06781      0              5470.3878      45.700181      20.047001      20.857         19108.174      7472.5336      4782.8051      4155.8248     -514.51731      806.77479      215.88993    
  39965500   263.82575     -352.58393     -275.27435     -352.59246      0              5641.0781      45.549817      20.047001      20.857         19045.303      4988.4281      6434.6236      5500.1826      483.25327      809.95862      942.34735    
  39966000   261.07296     -351.56741     -275.06448     -351.59275      0              5911.4915      45.455422      20.047001      20.857         19005.835      6987.5983      6310.9419      4435.9342     -394.97383      23.437994     -1491.5488    
  39966500   262.40033     -349.78598     -272.89409     -349.79516      0              5146.2532      45.562516      20.047001      20.857         19050.613      7210.1584      5112.7767      3115.8245     -62.89272      -1278.1065      542.42014    
  39967000   263.81819     -352.70413     -275.39676     -352.7157       0              3092.9022      45.805493      20.047001      20.857         19152.207      3521.7845      3586.8375      2170.0847     -1153.3458      115.00182     -1619.9776    
  39967500   261.80306     -351.34897     -274.6321      -351.36437      0              4815.5352      45.788159      20.047001      20.857         19144.959      6469.1803      3561.2931      4416.1321     -194.79091     -459.43912     -612.22156    
  39968000   258.36987     -350.85847     -275.14764     -350.88196      0              6362.1807      45.535882      20.047001      20.857         19039.477      7105.5757      7587.8151      4393.1514     -452.75969      187.10339     -1748.78      
  39968500   261.99359     -353.313       -276.5403      -353.32773      0              5286.4975      45.56927       20.047001      20.857         19053.437      4754.7703      3914.0248      7190.6974      919.88811     -999.00256     -1337.5172    
  39969000   259.62602     -353.89346     -277.81453     -353.92014      0              2094.8948      45.54672       20.047001      20.857         19044.008      4168.7259      1085.4775      1030.481       413.06647     -159.38591      1830.2459    
  39969500   259.74548     -349.19413     -273.0802      -349.21809      0              7323.6951      45.337971      20.047001      20.857         18956.726      7064.2804      5561.0867      9345.7183      1140.433       29.468638      980.45513    
  39970000   263.94659     -350.31652     -272.97153     -350.33434      0              3856.3704      45.511405      20.047001      20.857         19029.242      5135.2482      4378.532       2055.3309     -664.39661      1515.4307      1996.9759    
  39970500   253.90201     -350.34163     -275.94002     -350.36469      0              4430.8259      45.851448      20.047001      20.857         19171.421      2113.6965      5124.9094      6053.8718      19.761746      536.42276     -294.06512    
  39971000   254.75922     -352.1311      -277.47831     -352.15291      0              5174.6095      45.557485      20.047001      20.857         19048.509      7127.0155      4363.7493      4033.0638      857.88446     -88.946272     -1044.8154    
  39971500   257.96479     -352.71369     -277.12155     -352.74292      0              5905.5844      45.38477       20.047001      20.857         18976.294      6727.4043      6859.9141      4129.4349      825.96964     -334.4928       576.83883    
  39972000   251.95474     -350.64356     -276.81256     -350.67032      0              6650.425       45.552318      20.047001      20.857         19046.349      5767.1128      7435.2498      6748.9126      84.744914     -1126.2093      1261.921     
  39972500   258.46633     -348.48596     -272.74686     -348.51741      0              5405.9997      45.739549      20.047001      20.857         19124.634      4687.5829      5256.946       6273.4704     -474.18868      337.28849      191.22064    
  39973000   254.70436     -351.12726     -276.49054     -351.14517      0              3278.0215      45.642167      20.047001      20.857         19083.916      4836.5916      2691.069       2306.404      -221.76212      985.33272     -1504.4044    
  39973500   252.74508     -349.15848     -275.09589     -349.2708       0              1882.4928      45.482557      20.047001      20.857         19017.181      1007.7188      1887.5365      2752.2232     -1177.2169      1267.4015      1717.333     
  39974000   258.35254     -350.67492     -274.96916     -350.70336      0              6821.5961      45.340333      20.047001      20.857         18957.714      6515.759       6757.3985      7191.631       15.887988     -1393.7866     -391.42447    
  39974500   257.81459     -351.18637     -275.63825     -351.2326       0              4982.9862      45.45752       20.047001      20.857         19006.712      5662.2842      5143.1827      4143.4916     -1544.2888     -688.71239     -435.68238    
  39975000   264.37208     -350.36622     -272.89654     -350.39454      0              6434.1724      45.528035      20.047001      20.857         19036.195      7414.0187      6187.4475      5701.0511      2178.1346     -1022.4578      695.91013    
  39975500   252.97058     -350.23308     -276.10442     -350.25757      0              5016.7256      45.830118      20.047001      20.857         19162.503      6176.6847      5153.9768      3719.5154     -1386.6031      873.98727      255.98457    
  39976000   257.67996     -350.89134     -275.38267     -350.91556      0              3638.6774      45.719674      20.047001      20.857         19116.324      4897.1572      2611.2966      3407.5785      1160.9605     -619.9428      -950.80197    
  39976500   260.56734     -351.2952      -274.94043     -351.31425      0              4737.1704      45.425829      20.047001      20.857         18993.461      4611.9042      5740.0867      3859.5203      267.66109      607.66696      519.98932    
  39977000   261.31715     -352.09496     -275.52047     -352.11704      0              3793.9255      45.522408      20.047001      20.857         19033.843      3939.7842      5247.036       2194.9562     -235.24428      2084.9292      266.91754    
  39977500   253.33575     -351.7255      -277.48983     -351.75468      0              4737.6719      45.579238      20.047001      20.857         19057.605      5316.4145      4957.5468      3939.0545     -133.10608     -659.0921       585.66875    
  39978000   263.27198     -350.3581      -273.21078     -350.37346      0              6623.7055      45.525953      20.047001      20.857         19035.325      6508.2508      6415.5108      6947.3548     -974.28065     -2648.9942      914.17794    
  39978500   256.48144     -352.01687     -276.85941     -352.03944      0              6171.519       45.642654      20.047001      20.857         19084.12       7809.1709      5068.5142      5636.8719     -240.47977      1204.1015     -627.73633    
  39979000   252.966       -350.11988     -275.99256     -350.14672      0              3498.7514      45.648729      20.047001      20.857         19086.66       5437.4491      3040.2404      2018.5646      913.61404     -1015.4516     -1082.714     
  39979500   260.53271     -351.02701     -274.68239     -351.08139      0              5988.0833      45.460962      20.047001      20.857         19008.151      6329.2282      5799.5655      5835.4562     -317.30086     -506.80578     -895.59026    
  39980000   261.32207     -352.36222     -275.7863      -352.38435      0              5191.5455      45.315957      20.047001      20.857         18947.522      5323.0291      5551.8813      4699.726      -256.06726     -184.30901     -959.93421    
  39980500   267.85978     -353.17884     -274.68716     -353.20696      0              5121.2884      45.359184      20.047001      20.857         18965.596      6885.482       3669.3055      4809.0776      243.24218      1235.8737     -606.76566    
  39981000   259.31044     -351.02405     -275.0376      -351.05181      0              4549.594       45.704998      20.047001      20.857         19110.187      3983.3206      6557.5563      3107.905      -177.91237      622.11822      138.15378    
  39981500   257.89287     -354.6094      -279.03834     -354.6339       0              4571.1415      45.869996      20.047001      20.857         19179.177      3079.3463      6290.763       4343.3153     -1384.6662      755.42864      1294.0136    
  39982000   262.29961     -352.35701     -275.49463     -352.38735      0              3605.3987      45.686631      20.047001      20.857         19102.508      3800.3423      3859.5627      3156.2912      1741.6363      20.366675      236.1868     
  39982500   262.80917     -352.56628     -275.55458     -352.57931      0              7217.5447      45.529575      20.047001      20.857         19036.84       7913.0034      7111.5072      6628.1237     -558.41037     -1300.2758     -218.38118    
  39983000   266.23434     -351.74164     -273.72626     -351.76261      0              4418.1211      45.665456      20.047001      20.857         19093.654      6283.2427      2540.4997      4430.6208     -919.13693     -107.31935      254.93865    
  39983500   259.93876     -354.16997     -277.9994      -354.19145      0              4404.7556      45.749038      20.047001      20.857         19128.601      5572.7889      3178.4405      4463.0375     -2322.6786     -612.50974      2473.7105    
  39984000   262.00197     -352.94568     -276.17053     -352.95953      0              5581.6461      45.386752      20.047001      20.857         18977.122      8543.6006      4551.9879      3649.3498     -898.39735      235.35344      952.4891     
  39984500   259.50621     -350.58894     -274.54512     -350.59933      0              7000.9471      45.383196      20.047001      20.857         18975.636      7688.0577      7233.9776      6080.8059     -606.69043     -1564.9767     -190.24743    
  39985000   268.15455     -350.47464     -271.89657     -350.49482      0              5477.7679      45.677164      20.047001      20.857         19098.55       6337.6637      5999.9169      4095.7231     -49.781429      818.58055      382.45238    
  39985500   265.27574     -351.19992     -273.46544     -351.21695      0              5140.3416      45.468856      20.047001      20.857         19011.452      5347.9339      4941.1766      5131.9143     -1316.3148      1205.8372      1170.2529    
  39986000   271.06912     -352.78214     -273.35001     -352.79889      0              7005.9895      45.228264      20.047001      20.857         18910.855      7515.541       7982.0787      5520.3488      265.52329      135.95218     -1001.1829    
  39986500   267.06956     -353.27242     -275.01229     -353.28971      0              5161.2063      45.477918      20.047001      20.857         19015.241      7737.6543      4178.6839      3567.2806     -1418.1806     -191.17998      206.9437     
  39987000   261.789       -351.15039     -274.43764     -351.16045      0              6798.3045      45.449923      20.047001      20.857         19003.535      6960.6041      5466.1038      7968.2056      217.73242     -1276.3023     -2362.57      
  39987500   252.27506     -352.88858     -278.96372     -352.91369      0              3942.4211      45.227908      20.047001      20.857         18910.707      3865.7299      5756.2153      2205.3182      82.59803      -298.52983      533.46927    
  39988000   262.32384     -352.18511     -275.31563     -352.20015      0              9748.7858      45.037476      20.047001      20.857         18831.083      11672.918      10842.791      6730.6484     -124.19601     -772.09433     -710.39343    
  39988500   266.11971     -352.4687      -274.48691     -352.48785      0              4146.4813      45.440872      20.047001      20.857         18999.751      1741.0788      3892.1823      6806.1827      579.97341     -750.64246     -62.012915    
  39989000   262.73889     -351.26579     -274.27469     -351.28677      0              6125.1198      45.620737      20.047001      20.857         19074.956      6470.2095      6505.525       5399.625       230.24358      564.7582       1577.3912    
  39989500   266.8783      -352.34579     -274.14171     -352.36737      0              5925.2572      45.418864      20.047001      20.857         18990.549      5139.1628      6964.9725      5671.6363     -500.00856      245.51432     -945.15193    
  39990000   252.85957     -351.43897     -277.34284     -351.45112      0              7859.8094      45.310244      20.047001      20.857         18945.133      8461.3827      8828.0962      6289.9492      1216.0177      380.18248      2265.1361    
  39990500   250.66073     -351.31091     -277.85911     -351.32965      0              5847.2288      45.570951      20.047001      20.857         19054.14       6734.4317      4189.4029      6617.8517     -71.865939      1062.3394      484.08101    
  39991000   254.22263     -353.76709     -279.27154     -353.78947      0              4645.7288      45.607661      20.047001      20.857         19069.489      5454.1383      4133.1954      4349.8526     -403.49804      488.01305     -815.20475    
  39991500   265.07198     -353.35521     -275.68044     -353.37111      0              4685.7028      45.374485      20.047001      20.857         18971.993      5400.5708      5330.7589      3325.7788      394.55876     -155.79732      634.8314     
  39992000   260.85382     -352.98188     -276.54316     -353.00454      0              4390.6929      45.271495      20.047001      20.857         18928.931      4527.9933      4161.4278      4482.6576     -959.44024     -168.82773     -123.282      
  39992500   256.40594     -353.02901     -277.89368     -353.03098      0              5832.6991      45.361413      20.047001      20.857         18966.528      8326.5143      5604.0966      3567.4863     -438.51743      792.19147     -1057.3138    
  39993000   265.28736     -353.75018     -276.0123      -353.7572       0              6310.566       45.567462      20.047001      20.857         19052.681      5931.7619      4925.2546      8074.6816     -1365.0317     -287.65326      2179.5485    
  39993500   258.8049      -348.20797     -272.36966     -348.21848      0              7090.3264      45.473707      20.047001      20.857         19013.48       7337.1405      7821.0557      6112.7828      1015.8331     -246.36458     -714.25997    
  39994000   276.37225     -349.80052     -268.8144      -349.82269      0              5284.0502      45.513964      20.047001      20.857         19030.312      6151.8468      4727.9171      4972.3868      137.19823     -695.44652     -74.002243    
  39994500   261.06919     -351.10322     -274.6014      -351.12237      0              6151.6082      45.56422       20.047001      20.857         19051.325      9207.5289      6753.1         2494.1956     -540.15474     -834.44857      335.68827    
  39995000   259.23259     -353.93499     -277.97135     -353.95245      0              4581.6738      45.445795      20.047001      20.857         19001.809      6477.93        5018.6084      2248.4832     -446.47243      807.11758     -50.476072    
  39995500   260.37296     -351.38397     -275.08617     -351.43322      0              3972.8327      45.524444      20.047001      20.857         19034.694      3930.2183      4607.9796      3380.3003     -124.83392      49.705675     -1268.679     
  39996000   265.94503     -350.7402      -272.8096      -350.76324      0              6383.484       45.485758      20.047001      20.857         19018.519      6458.7257      6220.1691      6471.5573      1448.8302      1329.5148      1150.5977    
  39996500   257.37237     -351.10837     -275.68984     -351.12859      0              4446.7462      45.539775      20.047001      20.857         19041.105      2477.7755      7088.6946      3773.7685     -2010.4173     -781.72547     -73.997789    
  39997000   254.31034     -347.84132     -273.32007     -347.8653       0              6095.9742      45.404509      20.047001      20.857         18984.547      7292.7139      6393.8459      4601.3627      938.57618      1070.1248      1019.813     
  39997500   257.50936     -352.74843     -277.28976     -352.77379      0              6127.3918      45.57534       20.047001      20.857         19055.975      5340.454       7513.0006      5528.7209     -1935.0975      249.29644      650.96917    
  39998000   261.80353     -352.12492     -275.40792     -352.15666      0              4727.2937      45.597206      20.047001      20.857         19065.118      5179.1839      2521.2163      6481.481      -253.51168     -345.60605      772.30908    
  39998500   263.20027     -351.57911     -274.45281     -351.60502      0              5439.2258      45.314926      20.047001      20.857         18947.09       5201.1467      5673.8518      5442.679      -597.61279     -2027.5159     -288.74497    
  39999000   265.95447     -350.34254     -272.40918     -350.37062      0              7459.7869      45.230567      20.047001      20.857         18911.818      10004.274      6424.5957      5950.4908      652.22067      611.55942     -733.10033    
  39999500   257.34042     -352.59989     -277.19072     -352.6239       0              6741.8815      45.530807      20.047001      20.857         19037.355      7218.9665      6180.731       6825.9471      1253.6266     -1510.1815     -753.8456     
  40000000   257.48548     -354.06415     -278.61247     -354.08862      0              6426.241       45.52732       20.047001      20.857         19035.897      6652.0667      6713.3737      5913.2825     -517.99626     -234.47688      471.00022    
Loop time of 17530 on 4 procs for 760500 steps with 2268 atoms

Performance: 1.874 ns/day, 12.806 hours/ns, 43.383 timesteps/s
961.0% CPU use with 4 MPI tasks x no OpenMP threads

MPI task timing breakdown:
Section |  min time  |  avg time  |  max time  |%varavg| %total
---------------------------------------------------------------
Pair    | 9565.2     | 9608.3     | 9706.6     |  58.3 | 54.81
Bond    | 0.080648   | 0.094457   | 0.10102    |   2.6 |  0.00
Neigh   | 250.65     | 255.01     | 259.44     |  21.2 |  1.45
Comm    | 947.78     | 1034.5     | 1085.4     | 172.5 |  5.90
Output  | 469.48     | 469.49     | 469.53     |   0.1 |  2.68
Modify  | 6144.4     | 6160.3     | 6198.3     |  28.0 | 35.14
Other   |            | 2.259      |            |       |  0.01

Nlocal:            567 ave         576 max         560 min
Histogram: 1 0 0 2 0 0 0 0 0 1
Nghost:         3794.5 ave        3821 max        3770 min
Histogram: 1 0 0 0 2 0 0 0 0 1
Neighs:              0 ave           0 max           0 min
Histogram: 4 0 0 0 0 0 0 0 0 0
FullNghs:       144598 ave      146526 max      142726 min
Histogram: 1 1 0 0 0 0 0 1 0 1

Total # of neighbors = 578392
Ave neighs/atom = 255.02293
Ave special neighs/atom = 0
Neighbor list builds = 76050
Dangerous builds not checked

unfix		4
unfix		3
unfix		1

write_data	data.final.${pid}
write_data	data.final.0
System init for write_data ...
Generated 0 of 1 mixed pair_coeff terms from geometric mixing rule
write_restart	restart.lmp.${pid}
write_restart	restart.lmp.0
System init for write_restart ...
Generated 0 of 1 mixed pair_coeff terms from geometric mixing rule
Total wall time: 4:52:26
