LAMMPS (23 Jun 2022)
echo both

include		in.partitions
variable        pid world 0
include		in.temp
variable	temperature equal 260.0
variable        tempDamp equal 0.100 # this is 0.1 ps
include		in.pressure
variable        pressure equal 6079.5
variable        pressureDamp equal 1.0 #this is 1ps
include		in.seed
variable        seed world 745823

units           metal
atom_style	full
read_restart	restart.lmp.${pid}
read_restart	restart.lmp.0
Reading restart file ...
  restart file = 23 Jun 2022, LAMMPS = 23 Jun 2022
  restoring atom style full from restart
  orthogonal box = (0.63385194 0 0) to (46.816847 20.047001 20.857)
  4 by 1 by 1 MPI processor grid
Summary of lammps deepmd module ...
  >>> Info of deepmd-kit:
  installed to:       /u/sigbjobo/software/DEEPMD_FROM_SOURCE/deepmd-kit/install
  source:             v2.1.3
  source branch:       master
  source commit:      5a32c49
  source commit at:   2022-07-01 09:52:58 +0800
  surpport model ver.:1.1 
  build float prec:   double
  build with tf inc:  /u/sigbjobo/software/DEEPMD_FROM_SOURCE/tensorflow/install/include;/u/sigbjobo/software/DEEPMD_FROM_SOURCE/tensorflow/install/include
  build with tf lib:  /u/sigbjobo/software/DEEPMD_FROM_SOURCE/tensorflow/install/lib/libtensorflow_cc.so;/u/sigbjobo/software/DEEPMD_FROM_SOURCE/tensorflow/install/lib/libtensorflow_framework.so
  set tf intra_op_parallelism_threads: 0
  set tf inter_op_parallelism_threads: 0
  >>> Info of lammps module:
  use deepmd-kit at:  /u/sigbjobo/software/DEEPMD_FROM_SOURCE/deepmd-kit/install
  source:             v2.1.3
  source branch:      master
  source commit:      5a32c49
  source commit at:   2022-07-01 09:52:58 +0800
  build float prec:   double
  build with tf inc:  /u/sigbjobo/software/DEEPMD_FROM_SOURCE/tensorflow/install/include;/u/sigbjobo/software/DEEPMD_FROM_SOURCE/tensorflow/install/include
  build with tf lib:  /u/sigbjobo/software/DEEPMD_FROM_SOURCE/tensorflow/install/lib/libtensorflow_cc.so;/u/sigbjobo/software/DEEPMD_FROM_SOURCE/tensorflow/install/lib/libtensorflow_framework.so
  restoring pair style deepmd from restart
  2268 atoms
Finding 1-2 1-3 1-4 neighbors ...
  special bond factors lj:    0        0        0       
  special bond factors coul:  0        0        0       
     0 = max # of 1-2 neighbors
     0 = max # of 1-3 neighbors
     0 = max # of 1-4 neighbors
     1 = max # of special neighbors
  special bonds CPU = 0.000 seconds
  read_restart CPU = 0.009 seconds
include 	in.setup
variable	out_freq equal 500
variable	out_freq2 equal 1000
variable	out_freq3 equal 5000

timestep        0.0005

neigh_modify    delay 7 every 1

include         in.deepmd
# This is deepMD model

# create groups ###
#group ox type 2
#group hy type 1

mass 2 15.999
mass 1 1.008

pair_style      deepmd ../graph.pb
pair_coeff      * *

bond_style      none
angle_style     none
dihedral_style  none
improper_style  none
neigh_modify exclude none


neighbor        2.0 bin
neigh_modify    every 10 delay 0 check no

thermo          ${out_freq}
thermo          500
thermo_style 	custom step temp pe etotal epair emol press lx ly lz vol pxx pyy pzz pxy pxz pyz
#thermo_modify	flush yes
restart 	${out_freq} restart.lmp.${pid} restart2.lmp.${pid}
restart 	500 restart.lmp.${pid} restart2.lmp.${pid}
restart 	500 restart.lmp.0 restart2.lmp.${pid}
restart 	500 restart.lmp.0 restart2.lmp.0

include		in.dump
dump            myDump all atom ${out_freq3} dump.water.${pid}
dump            myDump all atom 5000 dump.water.${pid}
dump            myDump all atom 5000 dump.water.0
dump            myDump2 all dcd ${out_freq2} dump.dcd.${pid}
dump            myDump2 all dcd 1000 dump.dcd.${pid}
dump            myDump2 all dcd 1000 dump.dcd.0
dump_modify     myDump append yes
dump_modify     myDump2 append yes


timer           timeout 23:50:00 every 1000
New timer settings: style=normal  mode=nosync  timeout=23:50:00

fix             1 all plumed plumedfile plumed.dat outfile plumed.out
fix             3 all nph x ${pressure} ${pressure} ${pressureDamp}
fix             3 all nph x 6079.5 ${pressure} ${pressureDamp}
fix             3 all nph x 6079.5 6079.5 ${pressureDamp}
fix             3 all nph x 6079.5 6079.5 1
fix             4 all temp/csvr ${temperature} ${temperature} ${tempDamp} ${seed}
fix             4 all temp/csvr 260 ${temperature} ${tempDamp} ${seed}
fix             4 all temp/csvr 260 260 ${tempDamp} ${seed}
fix             4 all temp/csvr 260 260 0.1 ${seed}
fix             4 all temp/csvr 260 260 0.1 745823

run             40000000 upto

CITE-CITE-CITE-CITE-CITE-CITE-CITE-CITE-CITE-CITE-CITE-CITE-CITE

Your simulation uses code contributions which should be cited:

- USER-DEEPMD package:

@article{Wang_ComputPhysCommun_2018_v228_p178,
  author = {Wang, Han and Zhang, Linfeng and Han, Jiequn and E, Weinan},
  doi = {10.1016/j.cpc.2018.03.016},
  url = {https://doi.org/10.1016/j.cpc.2018.03.016},
  year = 2018,
  month = {jul},
  publisher = {Elsevier {BV}},
  volume = 228,
  journal = {Comput. Phys. Commun.},
  title = {{DeePMD-kit: A deep learning package for many-body potential energy representation and molecular dynamics}},
  pages = {178--184}
}

CITE-CITE-CITE-CITE-CITE-CITE-CITE-CITE-CITE-CITE-CITE-CITE-CITE

Generated 0 of 1 mixed pair_coeff terms from geometric mixing rule
Neighbor list info ...
  update every 10 steps, delay 0 steps, check no
  max neighbors/atom: 2000, page size: 100000
  master list distance cutoff = 8
  ghost atom cutoff = 8
  binsize = 4, bins = 12 6 6
  1 neighbor lists, perpetual/occasional/extra = 1 0 0
  (1) pair deepmd, perpetual
      attributes: full, newton on
      pair build: full/bin
      stencil: full/bin/3d
      bin: standard
Per MPI rank memory allocation (min/avg/max) = 6.186 | 6.188 | 6.19 Mbytes
   Step          Temp          PotEng         TotEng         E_pair         E_mol          Press            Lx             Ly             Lz           Volume          Pxx            Pyy            Pzz            Pxy            Pxz            Pyz      
   7532000   260.57921     -349.83376     -273.47552     -349.83376      0              5051.4825      46.182995      20.047001      20.857         19310.048      6217.5901      2798.5781      6138.2794     -1086.4552      690.86222     -1627.3421    
   7532500   258.49117     -349.21449     -273.46811     -349.19922      0              4208.435       46.117254      20.047001      20.857         19282.56       4290.5939      3646.1057      4688.6053     -216.12406      665.47048      34.446041    
   7533000   259.93278     -349.3199      -273.15108     -349.30102      0              5872.4575      46.039928      20.047001      20.857         19250.228      6126.0377      5497.9208      5993.4141      154.87418      61.523799     -1314.0301    
   7533500   258.40846     -350.05239     -274.33025     -350.04285      0              2358.1792      46.173225      20.047001      20.857         19305.963      704.13382      4022.7939      2347.61        255.56687      1354.8495      23.211637    
   7534000   263.89568     -349.23443     -271.90435     -349.2338       0              5455.1262      45.841307      20.047001      20.857         19167.181      7457.5022      5186.137       3721.7394      565.37766     -32.619732      1245.7813    
   7534500   264.56719     -348.82442     -271.29757     -348.8159       0              6336.4153      45.613404      20.047001      20.857         19071.89       6274.1956      7021.3958      5713.6546     -926.6918       1492.9671      1292.2161    
   7535000   264.12201     -349.67886     -272.28246     -349.65237      0              6595.0276      45.66478       20.047001      20.857         19093.371      7912.6725      5903.6668      5968.7436     -398.62364      1232.2811     -530.97234    
   7535500   255.26012     -350.74824     -275.94867     -350.72367      0              5617.3212      45.807202      20.047001      20.857         19152.921      6158.1368      6153.8353      4539.9916      213.57728      10.726549     -1985.7229    
   7536000   256.22129     -351.13746     -276.05623     -351.11397      0              7186.612       45.699473      20.047001      20.857         19107.877      9660.8638      6786.5966      5112.3755     -103.59761      564.58337      1464.2024    
   7536500   250.25275     -348.45436     -275.12211     -348.44261      0              4813.9007      45.417002      20.047001      20.857         18989.771      5010.9883      2014.8153      7415.8984      712.08925     -987.15533      510.56876    
   7537000   266.42503     -353.31899     -275.24773     -353.29718      0              6513.9359      45.4475        20.047001      20.857         19002.522      6724.8904      5559.0246      7257.8928     -1036.2473      456.19967      450.27262    
   7537500   261.05219     -353.95016     -277.45332     -353.92839      0              5716.813       45.982487      20.047001      20.857         19226.211      7184.8362      4045.0592      5920.5435     -499.07428      1692.2164      822.03568    
   7538000   261.03156     -353.11784     -276.62704     -353.07125      0              5183.5569      45.994197      20.047001      20.857         19231.107      4873.4525      6437.7535      4239.4648     -389.31356      1237.7371     -764.58964    
   7538500   258.56827     -353.87572     -278.10675     -353.82936      0              4865.4403      45.644518      20.047001      20.857         19084.899      6071.9569      1032.6411      7491.7228      284.4176       1505.0995     -699.79758    
   7539000   257.67943     -350.2759      -274.76739     -350.23163      0              5587.7344      45.727166      20.047001      20.857         19119.457      4139.1955      6044.6783      6579.3293     -649.63711     -593.3044       390.55916    
   7539500   259.35317     -350.36557     -274.3666      -350.3238       0              5907.1181      45.75457       20.047001      20.857         19130.915      7488.4874      5007.7536      5225.1132      347.1116      -93.808899     -1368.6245    
   7540000   255.05908     -351.41388     -276.67321     -351.35121      0              4308.7693      45.632247      20.047001      20.857         19079.769      7345.9598      3289.0749      2291.2733     -1997.0513     -1769.2148      1599.289     
   7540500   260.11268     -352.80781     -276.58628     -352.76726      0              4120.1122      45.893922      20.047001      20.857         19189.18       7633.2496      3559.4933      1167.5937      230.98463      1691.35       -588.46267    
   7541000   258.52763     -349.92233     -274.16526     -349.91129      0              4669.9118      46.148746      20.047001      20.857         19295.727      4547.6641      5053.7335      4408.3377     -240.13638      281.16255      488.68704    
   7541500   259.65527     -350.01762     -273.93013     -350.01607      0              3084.1821      46.100302      20.047001      20.857         19275.472      4961.454       1469.6112      2821.4811     -35.18798       1412.8887     -1554.3093    
   7542000   259.87626     -349.25073     -273.09847     -349.22978      0              4852.6063      46.112619      20.047001      20.857         19280.622      7305.7961      3416.3371      3835.6856     -1294.663      -166.25864      445.28781    
   7542500   266.40739     -347.45649     -269.3904      -347.437        0              7055.3761      45.996376      20.047001      20.857         19232.019      9417.8944      4820.3492      6927.8846      2741.6038      1455.3351      0.33690702   
   7543000   259.30078     -349.46876     -273.48514     -349.46637      0              5280.4322      45.981471      20.047001      20.857         19225.787      6518.304       4433.9453      4889.0472     -171.36215     -692.72784     -757.54067    
   7543500   266.93609     -354.26194     -276.04092     -354.24172      0              4235.3662      45.88518       20.047001      20.857         19185.525      4194.055       4060.2156      4451.8281     -173.97712      714.21741     -2658.5907    
   7544000   263.13165     -351.54904     -274.44285     -351.50815      0              4620.6711      45.571071      20.047001      20.857         19054.19       5246.5495      2631.9511      5983.5128     -147.53207      546.93005      1222.5278    
   7544500   260.9196      -350.70179     -274.2438      -350.66531      0              4752.6315      45.611062      20.047001      20.857         19070.911      6238.0464      4305.285       3714.5632     -966.68071      371.48302     -1504.2488    
   7545000   257.81788     -348.83247     -273.28338     -348.82333      0              6575.8739      45.958483      20.047001      20.857         19216.175      7538.7367      7453.9159      4734.9689     -133.63506      178.35504      681.24013    
   7545500   260.07104     -352.33657     -276.12724     -352.2938       0              2506.4342      45.864945      20.047001      20.857         19177.065      3836.4465      1512.8488      2170.0072     -89.829995     -9.1505533      625.4905     
   7546000   258.18789     -352.33865     -276.68114     -352.28815      0              4426.2565      45.424258      20.047001      20.857         18992.804      4334.9234      3704.5791      5239.267      -264.82539      1970.1902     -1587.3824    
   7546500   254.17774     -354.11805     -279.63565     -354.03812      0              5279.9838      45.45613       20.047001      20.857         19006.131      5438.3056      5123.4694      5278.1765      141.13835      226.78662      125.33638    
   7547000   264.00709     -353.39445     -276.03173     -353.31846      0              5504.4702      45.799997      20.047001      20.857         19149.909      5767.5675      5919.1481      4826.6951      80.99776      -834.63682      624.31525    
   7547500   258.10526     -352.29641     -276.66312     -352.24202      0              5780.5667      45.833859      20.047001      20.857         19164.067      7681.5351      5189.5486      4470.6163     -703.79116     -1319.0375      231.16463    
   7548000   263.09653     -353.24294     -276.14704     -353.2103       0              7144.5155      45.608595      20.047001      20.857         19069.88       8212.5993      5703.4532      7517.4939     -113.96938     -1042.8191     -74.338391    
   7548500   266.44867     -353.40736     -275.32917     -353.35172      0              5042.7189      45.654763      20.047001      20.857         19089.183      5658.0355      4591.5877      4878.5336      888.5561       339.12337     -361.64903    
   7549000   263.56234     -353.34238     -276.10998     -353.2938       0              5519.3625      45.832919      20.047001      20.857         19163.674      5464.3523      6936.598       4157.1371     -73.312595      1273.4719      1520.3072    
   7549500   258.26034     -352.43655     -276.75781     -352.34717      0              4484.7412      45.852528      20.047001      20.857         19171.873      6338.2213      3697.4216      3418.5806     -479.22369      1858.8757      90.843195    
   7550000   252.3985      -352.82705     -278.86602     -352.77153      0              4816.4241      45.606855      20.047001      20.857         19069.152      7216.4054      3929.8714      3302.9955      1167.6557     -155.78395     -1246.5565    
   7550500   254.08437     -351.3635      -276.90846     -351.32363      0              5593.8552      45.597213      20.047001      20.857         19065.12       8413.4704      3574.5452      4793.55        261.2514       1500.591       138.83976    
   7551000   260.33767     -353.45719     -277.16973     -353.39278      0              5335.3278      45.893212      20.047001      20.857         19188.884      7966.6521      2825.8089      5213.5225      1240.5741     -2338.6954     -419.62902    
   7551500   256.20542     -351.04708     -275.9705      -351.0251       0              3735.458       45.943597      20.047001      20.857         19209.951      5630.0789      4016.3772      1559.9181     -507.42251      1272.2252     -503.92652    
   7552000   265.17138     -354.53318     -276.82928     -354.5114       0              5063.0867      45.796868      20.047001      20.857         19148.6        6596.793       3080.786       5511.681       952.56519     -734.26428     -1079.7017    
   7552500   257.24317     -351.64326     -276.26259     -351.62406      0              4870.2933      45.857857      20.047001      20.857         19174.101      7181.2354      3687.8376      3741.8069      1768.0303      1882.7228      136.30616    
   7553000   256.7172      -353.76094     -278.53439     -353.70885      0              4117.9016      45.968654      20.047001      20.857         19220.428      4805.8065      1798.4267      5749.4717     -663.03922      9.6079013     -1269.619     
   7553500   256.07906     -354.66657     -279.62702     -354.6205       0              6241.4094      45.763928      20.047001      20.857         19134.827      4998.5434      6315.5654      7410.1195     -450.5424       2375.9881      903.1009     
   7554000   259.46721     -351.3567      -275.32431     -351.32225      0              5892.0061      45.767906      20.047001      20.857         19136.49       6234.9557      5701.6061      5739.4564     -596.71541     -117.91082     -1374.4651    
   7554500   259.77105     -351.33779     -275.21636     -351.33963      0              6775.2297      45.820921      20.047001      20.857         19158.657      5866.9622      7011.9218      7446.805       106.16549     -337.57119      1325.1659    
   7555000   254.01091     -353.16891     -278.73539     -353.15063      0              5257.6732      45.86554       20.047001      20.857         19177.313      6543.651       4716.3755      4512.9932      413.31995     -154.46055      1349.3094    
   7555500   253.9828      -350.51762     -276.09234     -350.52375      0              3516.0055      45.946882      20.047001      20.857         19211.324      4251.2557      1656.9435      4639.8174      362.69826      1555.2411     -905.18484    
   7556000   261.91466     -349.73158     -272.98201     -349.74323      0              6006.4569      45.746247      20.047001      20.857         19127.435      6737.0783      5132.8231      6149.4691      441.90805     -1682.6534      459.55961    
   7556500   264.12108     -352.88729     -275.49116     -352.88289      0              6672.0926      45.703585      20.047001      20.857         19109.597      6751.2141      5435.9588      7829.1049      2439.3867      1163.7289     -699.80176    
   7557000   263.499       -348.2148      -271.00096     -348.23122      0              4765.0769      45.932987      20.047001      20.857         19205.514      5540.9252      4851.9808      3902.3248      464.50068     -1946.1902      1138.7973    
   7557500   261.77885     -349.76899     -273.05921     -349.79534      0              4323.9704      45.970243      20.047001      20.857         19221.092      5715.555       3101.4779      4154.8784     -671.11431     -766.8816      -675.949      
   7558000   271.76156     -351.04829     -271.41325     -351.06419      0              5357.9487      45.870474      20.047001      20.857         19179.376      6077.2662      6125.6047      3870.9751     -898.52559     -596.79594     -526.10266    
   7558500   257.34106     -351.96864     -276.55928     -351.95802      0              5869.9772      45.880257      20.047001      20.857         19183.467      5194.7984      5116.9629      7298.1701      339.18322      229.65844     -101.11988    
   7559000   264.72588     -352.23079     -274.65744     -352.22586      0              4124.6147      45.906697      20.047001      20.857         19194.522      6492.061       114.30579      5767.4774      1077.2535     -200.88158      621.67197    
   7559500   262.31211     -352.08608     -275.22004     -352.06446      0              5140.1271      45.778459      20.047001      20.857         19140.903      6983.1128      4784.7593      3652.5092      686.49985     -732.1595      -2820.6153    
   7560000   257.06993     -351.91649     -276.58658     -351.91229      0              5024.114       45.712245      20.047001      20.857         19113.218      5924.9976      3591.6407      5555.7039      41.129074      819.99777      1240.1296    
   7560500   261.83899     -351.59328     -274.86588     -351.57724      0              3870.3693      45.724173      20.047001      20.857         19118.205      5707.0791      2949.7884      2954.2404      205.32246     -966.6137       941.07577    
   7561000   263.05586     -354.72345     -277.63947     -354.70149      0              5587.9833      45.878887      20.047001      20.857         19182.894      7736.6676      5264.8194      3762.4629     -512.70428     -904.55793     -1260.1906    
   7561500   260.06541     -351.02777     -274.82009     -351.00607      0              7193.0285      45.7001        20.047001      20.857         19108.139      7813.115       7089.0923      6676.8784     -467.33366     -778.71936      514.09802    
   7562000   268.3914      -349.00559     -270.35812     -349.02085      0              6133.4282      45.832055      20.047001      20.857         19163.313      8305.8034      5052.9533      5041.5278     -1117.6427      957.23487      1151.5785    
   7562500   260.40526     -349.56366     -273.25639     -349.56238      0              5987.8356      46.011285      20.047001      20.857         19238.252      7012.1261      6424.0541      4527.3267      324.6348      -1005.2749      2681.3691    
   7563000   268.25966     -350.3186      -271.70973     -350.29891      0              5924.4235      45.636124      20.047001      20.857         19081.39       5729.4296      5577.6975      6466.1434      1870.1728     -68.83559       1206.5541    
   7563500   262.05227     -352.16698     -275.37708     -352.15246      0              4599.2595      45.60203       20.047001      20.857         19067.134      3958.3329      6273.2278      3566.2176      1660.26        760.87082      861.7855     
   7564000   255.77728     -351.91344     -276.96232     -351.89146      0              6171.3783      45.662421      20.047001      20.857         19092.385      7417.5694      6142.8176      4953.7479      840.24494     -1267.2634     -184.81794    
   7564500   260.50121     -349.91104     -273.57566     -349.90153      0              6151.1399      45.754767      20.047001      20.857         19130.997      7344.6629      5216.5786      5892.1782      247.55401     -14.09015       212.49851    
   7565000   268.22007     -352.24559     -273.64833     -352.24211      0              5034.3983      45.661113      20.047001      20.857         19091.838      7126.6279      3877.1211      4099.4459     -19.927363      1320.4662     -105.79359    
   7565500   257.30578     -352.96745     -277.56843     -352.94152      0              2818.8539      45.564921      20.047001      20.857         19051.618      4515.6037      2653.3714      1287.5867      29.222418      614.51071     -1127.9061    
   7566000   254.93663     -352.85353     -278.14875     -352.82885      0              5050.0933      45.65271       20.047001      20.857         19088.325      4916.5261      5977.6308      4256.1228     -416.66633     -298.00216      1051.8094    
   7566500   255.25818     -354.00553     -279.20653     -354.01603      0              5045.2743      45.950971      20.047001      20.857         19213.034      4654.232       6836.3874      3645.2035     -74.924776     -290.46991      974.58964    
   7567000   263.56004     -356.02218     -278.79046     -356.00037      0              6594.6197      45.755737      20.047001      20.857         19131.402      6312.7872      6606.446       6864.6258     -1492.4289      1507.6399      857.52341    
   7567500   259.91984     -352.3994      -276.23437     -352.39185      0              4589.4162      45.585315      20.047001      20.857         19060.145      5731.8814      4247.8999      3788.4675      1443.7128      952.30567      1392.2791    
   7568000   261.95881     -353.60501     -276.84249     -353.595        0              7961.4088      45.533259      20.047001      20.857         19038.38       9826.5028      8235.0329      5822.6907      1265.5571     -410.74955      107.826      
   7568500   257.08128     -353.04208     -277.70884     -353.02073      0              4672.4548      45.640124      20.047001      20.857         19083.062      6953.1524      2971.7942      4092.418      -15.68705       578.06871     -1068.7409    
   7569000   254.76438     -350.94009     -276.28579     -350.94163      0              4600.8807      45.716782      20.047001      20.857         19115.115      4393.1853      5678.3503      3731.1064     -757.90192      492.36203     -77.841974    
   7569500   255.97072     -351.10791     -276.10011     -351.08621      0              7635.6362      45.311832      20.047001      20.857         18945.797      9241.6183      7568.5095      6096.7807     -453.9356      -453.08761      774.46079    
   7570000   260.46331     -350.16301     -273.83873     -350.16881      0              5585.2406      45.334777      20.047001      20.857         18955.39       5038.8661      5946.8414      5770.0144     -913.51767      1084.3914     -194.21942    
   7570500   264.87166     -353.27923     -275.66316     -353.27554      0              4831.1815      45.657985      20.047001      20.857         19090.53       4858.9721      6542.9152      3091.6574      111.61175     -526.68412      993.79799    
   7571000   260.94309     -353.1925      -276.72763     -353.19605      0              7252.1845      45.911599      20.047001      20.857         19196.571      8099.3463      8130.2891      5526.9179      1465.3479      327.78891     -742.79       
   7571500   268.11621     -350.84095     -272.27412     -350.82501      0              5256.9941      45.452088      20.047001      20.857         19004.441      6696.5474      3522.104       5552.331      -528.04911      1303.2005     -1072.7462    
   7572000   258.2652      -351.46356     -275.7834      -351.44237      0              7436.7426      45.153317      20.047001      20.857         18879.518      10441.995      6747.9166      5120.3163     -139.00649      442.40643     -1973.4251    
   7572500   261.21415     -354.06391     -277.51961     -354.059        0              4891.4982      45.743909      20.047001      20.857         19126.457      6681.176       2846.153       5147.1655     -179.2965       106.48239      1104.8853    
   7573000   260.3178      -353.84805     -277.56641     -353.8446       0              4027.8149      45.985389      20.047001      20.857         19227.425      2496.9708      5599.9643      3986.5095     -1056.8765     -553.6058       1299.4122    
   7573500   265.32929     -352.14956     -274.39939     -352.14358      0              7975.457       45.44435       20.047001      20.857         19001.205      8049.1363      7383.9355      8493.2993      332.77667      250.96502      662.49573    
   7574000   261.68354     -351.37476     -274.69291     -351.35806      0              7532.3835      45.422869      20.047001      20.857         18992.224      9010.0198      8858.48        4728.6506      748.05309     -1035.5195      22.032794    
   7574500   260.92562     -352.0148      -275.55504     -352.00519      0              4841.8958      45.624981      20.047001      20.857         19076.731      5113.9852      3873.852       5537.8502      1.2140119     -1851.3688     -1139.8225    
   7575000   267.01707     -353.95435     -275.70961     -353.9556       0              5614.4702      45.705889      20.047001      20.857         19110.56       5086.1749      7637.2073      4120.0282      1157.3423     -565.58086     -221.07921    
   7575500   263.56743     -352.0164      -274.78251     -352.00815      0              7636.5122      45.705324      20.047001      20.857         19110.324      7974.8815      6584.3092      8350.3458      171.73125     -57.326574      33.132845    
   7576000   255.84338     -352.75643     -277.78594     -352.74335      0              4200.4322      45.801909      20.047001      20.857         19150.708      6523.2821      3205.7209      2872.2934      515.0251      -958.69896     -1671.4131    
   7576500   256.68762     -350.97516     -275.75729     -350.96299      0              7055.6241      45.512941      20.047001      20.857         19029.884      4360.7959      9981.5718      6824.5046     -383.22407     -645.71339     -1421.0054    
   7577000   258.02637     -353.16816     -277.55799     -353.14629      0              5888.8623      45.449489      20.047001      20.857         19003.354      6640.7817      4955.1125      6070.6928     -413.75581     -1027.7008     -1416.617     
   7577500   255.90303     -353.52129     -278.53332     -353.50714      0              4892.8199      45.849214      20.047001      20.857         19170.487      5981.6902      4843.0271      3853.7423     -636.65626     -410.5495       556.04686    
   7578000   261.20407     -352.61779     -276.07644     -352.59622      0              5637.9854      46.008096      20.047001      20.857         19236.919      5532.5549      6694.3476      4687.0536     -111.11074     -706.80018     -2328.3391    
   7578500   264.99963     -352.48076     -274.82719     -352.45918      0              3723.748       45.984848      20.047001      20.857         19227.198      3288.1444      4699.5719      3183.5277      332.01748     -980.07431      574.68162    
   7579000   258.16483     -350.16174     -274.51099     -350.14929      0              4360.8844      45.912219      20.047001      20.857         19196.831      2728.3363      6681.3944      3672.9224      1615.0708      651.81281     -120.64496    
   7579500   261.19599     -349.91184     -273.37286     -349.90575      0              5905.7223      45.887417      20.047001      20.857         19186.461      7359.6506      5420.0487      4937.4676     -1210.8676     -108.18262      828.1993     
   7580000   259.70926     -352.78914     -276.68582     -352.76731      0              6459.1699      45.768135      20.047001      20.857         19136.586      8793.4781      5568.8137      5015.2179     -1543.763      -57.283536     -1308.9324    
   7580500   263.63202     -352.0504      -274.79759     -352.03123      0              4865.9037      45.669666      20.047001      20.857         19095.414      5180.1361      3986.5218      5431.0531     -1234.6393      153.61126     -1413.777     
   7581000   265.28006     -351.1263      -273.39055     -351.11003      0              3655.8509      45.807974      20.047001      20.857         19153.244      4478.2716      2298.345       4190.9359     -1341.8124     -1600.7542      1454.3832    
   7581500   269.76383     -348.91577     -269.86614     -348.9283       0              6573.6835      45.868509      20.047001      20.857         19178.555      5953.6545      6339.4579      7427.938       1581.7719      1330.4367      1113.6893    
   7582000   260.38447     -350.00132     -273.70014     -349.98612      0              4851.2033      45.794502      20.047001      20.857         19147.611      4738.6608      6571.1562      3243.7928     -119.32993      758.57532      600.69838    
   7582500   260.13675     -350.91733     -274.68874     -350.93353      0              5953.3045      45.404558      20.047001      20.857         18984.567      5315.7957      5442.8335      7101.2842     -570.04862     -435.38776      729.75498    
   7583000   264.07175     -349.15251     -271.77084     -349.16863      0              5891.5226      45.280216      20.047001      20.857         18932.578      7923.7661      5322.0702      4428.7316     -189.31462      305.55301     -2036.1937    
   7583500   261.51253     -351.94329     -275.31155     -351.94728      0              5649.1453      45.907713      20.047001      20.857         19194.947      7623.0033      4452.0869      4872.3457      180.02122     -1066.4607     -238.50281    
   7584000   259.89332     -353.44264     -277.28539     -353.42404      0              4732.4917      45.996825      20.047001      20.857         19232.206      4897.0918      5964.8212      3335.5621     -52.505545     -147.64837      125.9443     
   7584500   267.44704     -352.09002     -273.71928     -352.07271      0              5402.6883      45.643268      20.047001      20.857         19084.377      4958.6943      6853.5666      4395.8042     -741.85088      1465.2691     -772.26973    
   7585000   257.32763     -351.99763     -276.59221     -351.9647       0              6200.1285      45.699752      20.047001      20.857         19107.994      5088.6406      8012.622       5499.1229      1071.9186     -1475.1678     -715.88719    
   7585500   258.42898     -351.8181      -276.08994     -351.79798      0              5541.1037      45.702535      20.047001      20.857         19109.158      6023.246       5456.7506      5143.3144     -9.5312937     -384.84027     -624.83924    
   7586000   264.10916     -350.96481     -273.57218     -350.964        0              5416.8576      45.621585      20.047001      20.857         19075.311      6036.6769      5656.0711      4557.8249      119.71511     -291.56832     -713.77743    
   7586500   255.11199     -353.67462     -278.91845     -353.63166      0              7479.6437      45.889964      20.047001      20.857         19187.525      6843.167       8982.8609      6612.9031      1339.2218     -67.55546       319.78414    
   7587000   262.05301     -351.53651     -274.7464      -351.52041      0              5519.968       46.156802      20.047001      20.857         19299.096      5183.7596      7727.447       3648.6972      1188.0987     -878.68759     -980.53847    
   7587500   268.13603     -354.36574     -275.7931      -354.37676      0              6938.8889      45.951393      20.047001      20.857         19213.21       6317.3687      6626.2211      7873.077      -234.29256     -644.04268      228.69284    
   7588000   265.30162     -349.53064     -271.78858     -349.51746      0              4823.0458      45.769444      20.047001      20.857         19137.134      6185.4674      4845.0029      3438.6672     -580.39072      628.82668     -156.08969    
   7588500   257.83457     -350.12925     -274.57528     -350.15873      0              7641.9222      45.821189      20.047001      20.857         19158.769      9823.6748      7788.8826      5313.2093      267.86655      194.15795     -906.69101    
   7589000   256.80076     -353.81183     -278.5608      -353.79114      0              5361.9079      45.89076       20.047001      20.857         19187.859      5551.009       5426.4312      5108.2836     -653.11771      561.59216      609.82836    
   7589500   261.02519     -352.29335     -275.80442     -352.272        0              4260.4735      45.747341      20.047001      20.857         19127.892      4575.534       4408.8163      3797.0702     -1499.0185     -201.6836       970.96387    
   7590000   255.23038     -351.29068     -276.49982     -351.30189      0              8282.0133      45.832701      20.047001      20.857         19163.583      9242.6547      9081.6752      6521.71       -307.25078     -616.37494     -495.59069    
   7590500   256.21301     -348.42722     -273.34842     -348.40771      0              6938.2912      45.776359      20.047001      20.857         19140.025      7564.5938      8066.9446      5183.335       1696.6084      1486.5253      2635.8177    
   7591000   259.62474     -351.94068     -275.86213     -351.91717      0              5970.7351      45.949471      20.047001      20.857         19212.407      6057.3166      7233.7501      4621.1386     -547.63656     -149.06132     -1075.3954    
   7591500   265.32634     -351.73491     -273.98561     -351.72632      0              4549.3441      46.033446      20.047001      20.857         19247.518      6504.9644      4430.3703      2712.6977     -252.42442     -174.59231     -1270.6429    
   7592000   260.3833      -352.34156     -276.04073     -352.31983      0              7206.3018      45.728661      20.047001      20.857         19120.081      7773.3257      6015.9807      7829.599      -183.52683     -172.36902     -693.4198     
   7592500   260.36133     -352.52606     -276.23166     -352.53358      0              2269.2242      45.663644      20.047001      20.857         19092.896      4242.986       1594.5904      970.09614      2355.3479      2843.0893     -160.02629    
   7593000   252.97477     -350.04749     -275.9176      -350.026        0              6484.4243      45.609426      20.047001      20.857         19070.227      6678.0124      5990.6644      6784.5961     -1009.935      -919.95854      1101.9717    
   7593500   263.43702     -352.20634     -275.01066     -352.15265      0              4960.9769      45.830586      20.047001      20.857         19162.699      8675.9831      4584.582       1622.3657      1719.2712      1615.0946      827.41448    
   7594000   256.43794     -350.1025      -274.95778     -350.08225      0              2693.641       46.143543      20.047001      20.857         19293.552      1783.3734      2338.1084      3959.4413     -1645.0611     -1631.0475      2622.4565    
   7594500   262.73951     -353.492       -276.50072     -353.46711      0              5264.5065      45.798624      20.047001      20.857         19149.334      6167.3932      5686.9352      3939.191       83.571087     -724.42419     -926.87084    
   7595000   261.8309      -347.88914     -271.16411     -347.88378      0              4729.8469      45.625474      20.047001      20.857         19076.937      6939.5439      3543.8351      3706.1616     -1444.1469     -123.0501      -15.718206    
   7595500   263.73724     -353.18401     -275.90036     -353.16695      0              5642.2363      46.041138      20.047001      20.857         19250.735      4403.0622      5365.557       7158.0895      549.2273       1092.5828      1847.4259    
   7596000   267.77793     -351.28816     -272.82046     -351.30327      0              3428.2477      46.107627      20.047001      20.857         19278.535      4494.0635      3626.2856      2164.3939     -1313.1761      964.35384      304.71617    
   7596500   253.03809     -351.02812     -276.87967     -351.00645      0              6309.9016      45.792558      20.047001      20.857         19146.798      4789.9653      6980.3644      7159.3752      735.16715     -1868.9865      2126.0825    
   7597000   259.53243     -354.82747     -278.77596     -354.81131      0              6483.3545      45.56491       20.047001      20.857         19051.614      8926.3466      6394.3446      4129.3724      410.64647      1192.2367     -227.62167    
   7597500   260.50733     -354.59239     -278.25521     -354.56352      0              6077.4384      45.634857      20.047001      20.857         19080.86       6833.6767      5642.6144      5756.0242      575.36268      76.291252     -702.84703    
   7598000   264.71339     -350.68483     -273.11513     -350.6635       0              5389.5186      45.804486      20.047001      20.857         19151.785      6038.8544      7711.7397      2417.9617     -669.38098     -2559.3254      837.9111     
   7598500   263.73966     -350.17058     -272.88622     -350.17058      0              5977.7772      45.826033      20.047001      20.857         19160.795      6092.5904      5436.1778      6404.5633      171.04541      280.90715     -5.7451758    
   7599000   254.19843     -351.01983     -276.53137     -351.0211       0              5820.1937      45.702266      20.047001      20.857         19109.045      6603.1359      5028.0073      5829.4378     -365.33218      925.45701      307.92059    
   7599500   256.53423     -351.82641     -276.65348     -351.83634      0              6010.9478      45.636269      20.047001      20.857         19081.451      7478.1441      5248.7229      5305.9765      798.88967     -111.4018       1889.3223    
   7600000   255.96064     -351.83777     -276.83292     -351.83376      0              7070.1538      45.716851      20.047001      20.857         19115.143      8333.5618      6407.6952      6469.2044     -818.85551      561.34686      314.81288    
   7600500   262.35191     -351.54145     -274.66375     -351.5553       0              5160.0408      45.900375      20.047001      20.857         19191.879      4645.0722      6860.3787      3974.6715      193.45483      49.120119      605.84784    
   7601000   254.97041     -353.38057     -278.66589     -353.38742      0              6149.0085      45.773964      20.047001      20.857         19139.024      7880.6269      4552.3774      6014.0212     -327.88417      1140.5364      1042.9642    
   7601500   259.06205     -353.47733     -277.56366     -353.48624      0              3831.8167      45.633403      20.047001      20.857         19080.252      4050.998       4792.8027      2651.6494      278.04164      588.5924       218.73966    
   7602000   259.56789     -354.38938     -278.32749     -354.41027      0              5053.1946      45.705893      20.047001      20.857         19110.562      5937.2789      4611.3346      4610.9702      361.86879     -1015.2328     -37.79378     
   7602500   254.68653     -353.05692     -278.42542     -353.07301      0              6031.7262      45.873609      20.047001      20.857         19180.687      7850.9975      4990.0728      5254.1082      493.77844      853.39735      10.540757    
   7603000   257.59444     -353.15203     -277.66843     -353.13186      0              6772.1488      45.575878      20.047001      20.857         19056.2        8423.5663      5360.6701      6532.2101     -40.185162     -124.32294      853.43532    
   7603500   254.7133      -350.18098     -275.54165     -350.18148      0              4267.2873      45.399668      20.047001      20.857         18982.523      5471.412       3398.0627      3932.3873     -1460.671       586.93713      706.74477    
   7604000   270.4201      -350.51925     -271.2773      -350.51368      0              4787.7543      45.487179      20.047001      20.857         19019.113      7414.929       3394.7138      3553.6202     -839.0801       370.63028     -643.1032     
   7604500   255.41989     -350.5687      -275.72231     -350.56338      0              3288.6713      45.810934      20.047001      20.857         19154.482      5315.5649      997.33099      3553.1179     -25.302498      1083.3772      1274.7491    
   7605000   260.07851     -352.05374     -275.84222     -352.06615      0              3545.6682      45.815522      20.047001      20.857         19156.4        5597.8668      2030.9763      3008.1616      658.49244      775.59066     -741.11737    
   7605500   259.24013     -349.40242     -273.43658     -349.38425      0              5451.0635      45.53493       20.047001      20.857         19039.079      5065.4678      5728.3707      5559.3519     -2727.7495     -986.80554      237.89852    
   7606000   262.51079     -352.13193     -275.20767     -352.11031      0              4813.3777      45.34832       20.047001      20.857         18961.053      2951.8225      5824.8751      5663.4354     -352.19048     -647.11149      84.547814    
   7606500   253.93067     -350.81677     -276.40676     -350.80782      0              6574.6166      45.507464      20.047001      20.857         19027.594      5681.8774      7720.0397      6321.9327      628.10618     -683.95415     -224.24799    
   7607000   255.73746     -350.63943     -275.69998     -350.64519      0              2984.7666      45.716753      20.047001      20.857         19115.102      3302.0826      3428.336       2223.881      -792.17679      261.81117     -827.92441    
   7607500   259.14274     -352.61158     -276.67427     -352.6113       0              2325.0724      45.694979      20.047001      20.857         19105.998      5560.2206      486.64114      928.35533     -590.29266     -804.55435     -278.352      
   7608000   259.88985     -353.70191     -277.54567     -353.68652      0              7029.2552      45.600969      20.047001      20.857         19066.691      6193.3217      8182.98        6711.4638      1137.0629     -429.04357     -591.47462    
   7608500   254.58051     -356.15325     -281.55283     -356.1346       0              7608.0163      45.314292      20.047001      20.857         18946.825      9712.0636      7411.5277      5700.4577      1473.9371     -430.55002      1132.8842    
   7609000   254.30317     -355.48785     -280.9687      -355.4751       0              5535.668       45.172192      20.047001      20.857         18887.411      6818.7724      5543.9635      4244.268      -472.30591      53.599427     -155.31592    
   7609500   255.73934     -352.75758     -277.81757     -352.75626      0              4879.4625      45.63832       20.047001      20.857         19082.308      6327.9352      3089.0798      5221.3727      418.1184       6.9401901      881.37046    
   7610000   260.75891     -349.21262     -272.80172     -349.20192      0              4669.0532      45.816797      20.047001      20.857         19156.933      5297.6855      4689.4167      4020.0573     -1352.6622      798.47862     -1323.516     
   7610500   260.83412     -353.4975      -277.06456     -353.49106      0              5257.1143      45.364952      20.047001      20.857         18968.008      2536.5287      5886.8312      7347.9831      310.21151     -252.86792     -373.6923     
   7611000   250.76337     -351.94087     -278.45899     -351.95464      0              4970.3522      45.234228      20.047001      20.857         18913.349      5540.3557      5119.8998      4250.8013      457.12222      677.88773     -277.06652    
   7611500   262.30623     -353.12545     -276.26114     -353.13873      0              4904.6896      45.553236      20.047001      20.857         19046.733      6963.7251      3416.3502      4333.9935     -1555.5505     -447.23041      952.21094    
   7612000   259.52639     -351.82555     -275.77582     -351.82186      0              6659.1918      45.590242      20.047001      20.857         19062.206      5846.5124      8469.7833      5661.2797      40.627779     -1027.1027      535.20942    
   7612500   260.85991     -353.60311     -277.16261     -353.60324      0              5810.346       45.401074      20.047001      20.857         18983.111      5148.3072      7823.036       4459.6947      1006.0587     -1038.7525      593.36317    
   7613000   257.11317     -351.83616     -276.49358     -351.81424      0              8054.6934      45.39412       20.047001      20.857         18980.203      8201.3307      6366.5892      9596.1603     -456.09032      662.35985     -1410.2561    
   7613500   262.06309     -353.81534     -277.02228     -353.81299      0              5084.2256      45.49113       20.047001      20.857         19020.765      6731.778       4227.3405      4293.5584     -422.62276      239.85276      905.9882     
   7614000   254.98999     -352.08265     -277.36223     -352.07061      0              4396.5059      45.462034      20.047001      20.857         19008.599      5553.2712      3915.0862      3721.1604      222.60097     -234.07403      767.7186     
   7614500   260.36189     -349.08175     -272.78719     -349.06164      0              7697.0725      45.61444       20.047001      20.857         19072.324      8342.6646      7995.734       6752.8188      823.43047      613.25557      724.99502    
   7615000   253.25824     -350.51737     -276.30441     -350.50139      0              6435.4696      45.603227      20.047001      20.857         19067.635      6705.9536      6105.6926      6494.7626     -1075.9874     -271.38466      184.74839    
   7615500   259.3126      -352.39325     -276.40617     -352.38677      0              8043.9562      45.310983      20.047001      20.857         18945.442      9251.9774      6746.6275      8133.2638      898.62962     -237.67779     -675.25025    
   7616000   265.48231     -350.78095     -272.98594     -350.74811      0              5274.9251      45.368414      20.047001      20.857         18969.455      6317.9024      5718.713       3788.16       -604.75905      2061.4862      921.77648    
   7616500   255.59246     -353.19348     -278.29652     -353.17343      0              5991.8196      45.655978      20.047001      20.857         19089.691      6121.9563      6464.4352      5389.0673      485.66241     -814.18062      264.38863    
   7617000   257.41301     -353.43914     -278.0087      -353.40254      0              4100.6601      45.629657      20.047001      20.857         19078.686      3807.6943      4526.9126      3967.3732      181.04279      408.41909      353.0369     
   7617500   267.56481     -352.62461     -274.21935     -352.5785       0              6137.1517      45.261994      20.047001      20.857         18924.959      5528.7576      5938.0925      6944.605       301.13415      1968.5351     -1070.6448    
   7618000   264.55074     -353.33329     -275.81125     -353.31175      0              5382.0677      45.429707      20.047001      20.857         18995.083      5875.7621      4891.7447      5378.6963     -644.69609     -307.1055       1915.1991    
   7618500   254.34783     -355.41437     -280.88213     -355.39573      0              4574.659       45.658578      20.047001      20.857         19090.778      2925.3257      6416.3275      4382.3237     -360.52967      1384.1327     -1532.8595    
   7619000   258.38798     -353.5869      -277.87076     -353.5395       0              5530.619       45.516834      20.047001      20.857         19031.512      6903.8951      4593.9996      5093.9622      298.0156      -1277.9489     -373.2361     
   7619500   257.68725     -352.66195     -277.15114     -352.61729      0              6675.2727      45.233105      20.047001      20.857         18912.879      9606.2306      3695.9485      6723.6388     -110.68341      38.206902     -202.01736    
   7620000   260.13038     -351.47345     -275.24673     -351.45798      0              4874.4853      45.385156      20.047001      20.857         18976.455      6791.271       3725.0227      4107.1622      605.42935     -1826.5072      1235.9554    
   7620500   264.30832     -353.83363     -276.38263     -353.8252       0              2786.1617      45.620574      20.047001      20.857         19074.888      3185.817       3325.5761      1847.0919      532.05142      2021.5876     -1592.2602    
   7621000   253.56623     -353.69389     -279.39068     -353.67292      0              4804.4175      45.242406      20.047001      20.857         18916.769      6053.116       3648.973       4711.1635      5.953587       1812.5091      752.18584    
   7621500   251.26007     -354.32556     -280.69813     -354.29594      0              7036.5187      45.189557      20.047001      20.857         18894.671      7823.3739      6895.9896      6390.1928      140.09801     -792.99859      1458.973     
   7622000   253.76886     -354.67588     -280.3133      -354.65451      0              4933.0895      45.306917      20.047001      20.857         18943.742      4876.5059      4834.3573      5088.4054     -569.86945      265.561        1187.5726    
   7622500   260.60401     -353.13056     -276.76505     -353.115        0              6014.692       45.46193       20.047001      20.857         19008.556      9101.0348      4734.0239      4209.0171     -1012.7529      33.413781      244.81298    
   7623000   261.95993     -354.90579     -278.14295     -354.90961      0              3403.4913      45.510589      20.047001      20.857         19028.901      4233.2582      4006.104       1971.1118     -864.77627     -243.97643      144.97955    
   7623500   255.79556     -353.60468     -278.64821     -353.58296      0              5196.2532      45.302836      20.047001      20.857         18942.035      6835.525       6604.0026      2149.2319      110.42421      699.5208      -201.95856    
   7624000   264.92432     -354.58826     -276.95676     -354.56686      0              5833.2964      45.429533      20.047001      20.857         18995.01       6281.2457      4285.1129      6933.5307     -541.51115     -1314.0834      1124.6686    
   7624500   261.28831     -352.29851     -275.73247     -352.3016       0              5124.1036      45.678762      20.047001      20.857         19099.218      4877.7643      6213.34        4281.2064      1282.6163      1527.6276      783.57218    
   7625000   261.19429     -352.44378     -275.9053      -352.422        0              4109.3895      45.340393      20.047001      20.857         18957.739      4766.9436      2406.1621      5155.0627     -731.29076     -1185.441       494.79451    
   7625500   252.89536     -352.85877     -278.75215     -352.83446      0              4407.7825      45.248773      20.047001      20.857         18919.431      8464.8735      1775.5342      2982.9399     -845.34369      484.37408     -659.5499     
   7626000   254.99901     -352.63756     -277.9145      -352.63647      0              1292.1871      45.591739      20.047001      20.857         19062.832      1237.6868      2266.9553      371.91927      858.58378      595.06453      1240.5046    
   7626500   258.79324     -353.24939     -277.4145      -353.23256      0              5497.7711      45.432342      20.047001      20.857         18996.184      5736.257       4915.9338      5841.1224     -1665.4073     -1194.1106      1862.7036    
   7627000   262.07063     -353.93793     -277.14265     -353.91057      0              7783.2805      45.221189      20.047001      20.857         18907.897      6448.8331      9826.7075      7074.3009      1128.342      -955.37261     -1868.7898    
   7627500   255.55859     -352.07716     -277.19012     -352.05693      0              2970.0288      45.559528      20.047001      20.857         19049.363      3483.1775      4672.5353      754.3736      -183.63066     -302.28006     -4.8589879    
   7628000   251.66717     -350.70452     -276.9578      -350.72048      0              4583.3577      45.818226      20.047001      20.857         19157.53       4286.0241      2981.2077      6482.8414     -22.994168     -1099.6538      562.92187    
   7628500   257.69379     -352.40958     -276.89686     -352.39776      0              5461.2674      45.46627       20.047001      20.857         19010.37       4524.7442      8421.4327      3437.6255      1300.5292     -1396.9837     -911.63213    
   7629000   262.56341     -351.8412      -274.90153     -351.83003      0              5725.7467      45.158618      20.047001      20.857         18881.735      7075.2739      4589.3889      5512.5773     -549.21437      987.72137      2140.7471    
   7629500   258.63202     -352.09263     -276.30498     -352.08095      0              5592.5828      45.352269      20.047001      20.857         18962.704      6236.5648      5918.592       4622.5915     -257.5656      -1183.9346      1659.0226    
   7630000   262.4356      -354.38004     -277.47781     -354.35972      0              3769.6917      45.469923      20.047001      20.857         19011.898      4783.0191      4292.0714      2233.9847     -1027.0752      1237.6915      671.43085    
   7630500   257.79784     -353.97287     -278.42966     -353.96749      0              5146.4794      45.441656      20.047001      20.857         19000.079      5488.638       4344.5615      5606.2386     -1026.4167      624.77303     -134.9422     
   7631000   256.44976     -350.24862     -275.10044     -350.23974      0              5442.6244      45.171564      20.047001      20.857         18887.148      7224.4697      5194.4524      3908.9512     -194.94401      306.60276      408.9149     
   7631500   263.02676     -350.96125     -273.88579     -350.96195      0              9236.1991      45.35648       20.047001      20.857         18964.465      8208.6549      10425.345      9074.5975     -308.77243      3132.2956      8.2691313    
   7632000   259.272       -350.56902     -274.59384     -350.57451      0              2190.5157      45.787233      20.047001      20.857         19144.572      1084.6067      1770.4263      3716.5143      1310.0922      647.58173      36.965308    
   7632500   261.73106     -351.64861     -274.95284     -351.66228      0              4900.3759      45.511727      20.047001      20.857         19029.377      5549.7078      5236.9612      3914.4587     -262.48138     -309.92146      2123.4903    
   7633000   253.92169     -349.22486     -274.81748     -349.22932      0              4870.9474      45.083974      20.047001      20.857         18850.525      7182.0051      3586.6203      3844.2167      594.17138     -1540.1447     -1552.5367    
   7633500   254.72958     -350.17928     -275.53517     -350.16794      0              6834.9693      45.38198       20.047001      20.857         18975.127      5584.7106      6968.9733      7951.2238      651.27907      576.71044      612.10062    
   7634000   260.4559      -351.4834      -275.16129     -351.51074      0              5822.6764      45.747696      20.047001      20.857         19128.04       4202.2667      6880.4417      6385.321      -434.69842      1430.1086     -1443.1628    
   7634500   259.38147     -352.51535     -276.50808     -352.52474      0              6197.899       45.534132      20.047001      20.857         19038.745      7302.1713      7214.2364      4077.2893      155.7571       1237.0434      1532.8236    
   7635000   256.82381     -351.63689     -276.3791      -351.63114      0              7360.2727      45.174254      20.047001      20.857         18888.273      8622.9564      6905.8051      6552.0565      613.52275      767.71564     -1206.2073    
   7635500   261.92497     -353.59133     -276.83873     -353.58717      0              4015.5517      45.337834      20.047001      20.857         18956.669      2966.6351      4365.2208      4714.7991      596.39632     -341.56293      1437.5353    
   7636000   262.73016     -352.66589     -275.67735     -352.6491       0              3504.208       45.630241      20.047001      20.857         19078.93       3805.5429      4520.061       2187.0201      975.29284      1688.2333     -70.440978    
   7636500   260.7994      -353.24398     -276.82121     -353.224        0              6900.3765      45.783681      20.047001      20.857         19143.086      4558.2412      8209.7402      7933.1482     -249.67266     -1803.764       1272.9695    
   7637000   261.66099     -350.7605      -274.08526     -350.76007      0              3906.1556      45.401912      20.047001      20.857         18983.461      3963.0053      4165.2693      3590.1923      53.270879     -745.54207      987.81153    
   7637500   266.15083     -348.95998     -270.96907     -348.93099      0              6930.9594      45.149112      20.047001      20.857         18877.76       6568.4069      7733.0418      6491.4296      743.24418      867.48749      2168.6394    
   7638000   257.79215     -351.16033     -275.61878     -351.14588      0              3168.6571      45.529615      20.047001      20.857         19036.856      3035.8828      1941.9688      4528.1197      783.84003      1412.294       2063.7645    
   7638500   261.10582     -348.66317     -272.15061     -348.66357      0              4439.4517      45.618313      20.047001      20.857         19073.943      4782.4985      6347.1543      2188.7022      1112.1812     -1340.0083     -3077.7915    
   7639000   262.39578     -350.68637     -273.79581     -350.66417      0              5761.2422      45.468391      20.047001      20.857         19011.257      5964.8176      6474.0937      4844.8153      616.34151     -475.97093      717.10045    
   7639500   257.18316     -347.5023      -272.13921     -347.47925      0              7125.0461      45.320574      20.047001      20.857         18949.452      9687.2377      5622.5069      6065.3936     -226.17637      597.42916     -161.79367    
   7640000   263.65863     -350.59162     -273.33101     -350.58018      0              5466.6341      45.573895      20.047001      20.857         19055.37       6293.7458      5634.3965      4471.7599     -460.60915      394.49414      2169.8187    
   7640500   260.16551     -349.45284     -273.21582     -349.46874      0              6464.5012      45.782684      20.047001      20.857         19142.67       7225.3992      5316.7775      6851.3269     -759.68419      2185.2908     -238.01328    
   7641000   255.87405     -349.79005     -274.81057     -349.7993       0              5712.2396      45.524315      20.047001      20.857         19034.64       7799.0457      3866.8988      5470.7744     -412.75877     -411.1686       1503.6571    
   7641500   265.23314     -353.54176     -275.81976     -353.52511      0              5836.4913      45.427523      20.047001      20.857         18994.169      6828.4675      5222.6096      5458.3969      280.12165      759.14822     -1735.007     
   7642000   261.76725     -351.86939     -275.16301     -351.85418      0              3916.1561      45.58969       20.047001      20.857         19061.975      4883.502       2269.493       4595.4731      757.9005       668.66533     -310.24242    
   7642500   260.75648     -353.49601     -277.08583     -353.51116      0              6404.1831      45.575525      20.047001      20.857         19056.052      9148.2698      5358.8939      4705.3857      1747.8705      866.42748      980.26577    
   7643000   258.26133     -350.4236      -274.74457     -350.41911      0              5100.209       45.651698      20.047001      20.857         19087.902      3167.2744      5865.8034      6267.5492      1613.6029     -156.87429     -66.649009    
   7643500   257.42654     -350.97238     -275.53797     -350.96077      0              4291.5338      45.475337      20.047001      20.857         19014.162      5470.2882      3966.38        3437.9332     -594.44686      851.57619     -1735.7137    
   7644000   255.142       -352.05864     -277.29368     -352.03731      0              7718.1557      45.290502      20.047001      20.857         18936.878      9735.479       6163.2592      7255.729       525.81902      248.543       -449.71558    
   7644500   259.54065     -353.7368      -277.68289     -353.73204      0              4684.5578      45.576804      20.047001      20.857         19056.587      3803.9311      5389.7855      4859.9568      176.44532      1519.8199      1177.1029    
   7645000   262.53655     -353.37598     -276.44417     -353.35827      0              3474.433       45.68948       20.047001      20.857         19103.699      3176.9256      4538.0429      2708.3304      49.478293      874.29527     -134.74842    
   7645500   259.68869     -351.3847      -275.28741     -351.36683      0              7554.9079      45.487802      20.047001      20.857         19019.374      5984.8453      7733.8051      8946.0734     -403.11632     -1433.9841     -584.64953    
   7646000   264.09145     -353.17908     -275.79164     -353.17155      0              8091.974       45.515189      20.047001      20.857         19030.824      8715.7362      8474.4804      7085.7054      100.46023     -644.99052      67.823892    
   7646500   269.88565     -353.51429     -274.42896     -353.49304      0              5125.9661      45.686999      20.047001      20.857         19102.662      4849.9539      5641.4494      4886.495       598.34664      248.7845       1672.3429    
   7647000   256.33595     -349.26302     -274.14819     -349.22403      0              3889.3809      45.480939      20.047001      20.857         19016.504      5243.42        2883.4777      3541.2448      922.86558      768.83003      1153.7084    
   7647500   260.86037     -351.27605     -274.83542     -351.26603      0              5743.1421      45.583669      20.047001      20.857         19059.457      5225.6257      6398.388       5605.4126      1680.0901      37.479346      545.8714     
   7648000   254.91866     -352.27928     -277.57976     -352.26795      0              6024.3194      45.609511      20.047001      20.857         19070.262      5782.0374      6438.4703      5852.4505     -239.28854      821.01126      1035.0525    
   7648500   262.12649     -351.5204      -274.70875     -351.50577      0              5935.8162      45.486308      20.047001      20.857         19018.749      6073.8342      6995.7387      4737.8758      649.77742      1186.4776     -1958.5843    
   7649000   262.98495     -354.84484     -277.78164     -354.82359      0              4892.7384      45.731326      20.047001      20.857         19121.196      6321.2741      4113.0674      4243.8736      2634.8812     -594.42853     -591.52926    
   7649500   251.06845     -353.21866     -279.64739     -353.21714      0              4717.0691      45.8025        20.047001      20.857         19150.955      4947.926       3825.4967      5377.7847      725.18041      928.67127      1470.8829    
   7650000   261.88089     -353.74021     -277.00053     -353.73978      0              6012.5656      45.399276      20.047001      20.857         18982.359      7143.7796      5889.5983      5004.3188      1471.821      -97.672623      564.8254     
   7650500   261.19066     -352.35022     -275.8128      -352.34705      0              6319.0486      45.366946      20.047001      20.857         18968.841      7198.4116      5021.2568      6737.4775      792.18876      802.99717      704.87238    
   7651000   260.91317     -351.47587     -275.01977     -351.47198      0              4596.6572      45.699712      20.047001      20.857         19107.977      5174.5203      3315.3207      5300.1306     -10.600921     -88.677521     -449.24757    
   7651500   257.06572     -351.91835     -276.58967     -351.8992       0              4350.6267      45.895921      20.047001      20.857         19190.016      6172.8304      2961.0115      3918.0382      1478.514      -364.74609      739.23037    
   7652000   258.77374     -352.54796     -276.71878     -352.52689      0              5124.4275      45.704595      20.047001      20.857         19110.019      5508.5724      5777.358       4087.3522      435.98071     -220.13366      956.78301    
   7652500   257.64779     -351.96979     -276.47055     -351.95937      0              3810.8915      45.503108      20.047001      20.857         19025.773      4833.4519      3534.311       3064.9114      391.69605      1502.808       809.84233    
   7653000   262.61529     -354.11842     -277.16355     -354.10297      0              2834.3588      45.536066      20.047001      20.857         19039.554      5373.4975      1851.1871      1278.3917      1708.7889     -1463.0576      554.96915    
   7653500   265.11952     -353.17774     -275.48904     -353.17863      0              7069.6684      45.675878      20.047001      20.857         19098.012      6850.8862      6417.8724      7940.2466     -1672.0913      2266.5557     -1326.1609    
   7654000   253.65832     -350.87835     -276.54815     -350.87492      0              4295.6068      45.656956      20.047001      20.857         19090.1        4312.8103      3698.2855      4875.7248     -276.8427      -371.75816      1420.7488    
   7654500   262.05418     -351.39124     -274.60079     -351.38509      0              6286.9877      45.550429      20.047001      20.857         19045.559      5355.5987      6886.8741      6618.4902     -36.753902      185.60212     -107.53101    
   7655000   255.35451     -353.29102     -278.46378     -353.30451      0              2570.7041      45.707854      20.047001      20.857         19111.382      6388.191       1390.3824     -66.461062      920.94533     -1275.0217      970.86413    
   7655500   257.79044     -351.93679     -276.39575     -351.91368      0              6143.3431      45.665609      20.047001      20.857         19093.718      6883.9065      6331.9975      5214.1253     -869.81509      330.79321      229.20198    
   7656000   263.59496     -352.97155     -275.7296      -352.9521       0              4472.1454      45.60286       20.047001      20.857         19067.482      3990.5776      5097.697       4328.1616     -1353.5291      73.959772     -2295.9463    
   7656500   259.9335      -351.80191     -275.63289     -351.8111       0              5216.0165      45.556347      20.047001      20.857         19048.034      6629.8542      4908.8959      4109.2994     -1230.9519     -1369.4217      898.77425    
   7657000   263.83475     -350.57342     -273.2612      -350.57192      0              4306.8621      45.686451      20.047001      20.857         19102.433      4645.0482      4757.9957      3517.5425      1021.2435     -219.92051      560.91376    
   7657500   264.54106     -352.4537      -274.93451     -352.46579      0              6459.928       45.885596      20.047001      20.857         19185.699      6482.347       8756.8069      4140.63       -340.0163      -491.30174      628.37643    
   7658000   262.8178      -351.20574     -274.19152     -351.2254       0              5583.2228      45.957916      20.047001      20.857         19215.937      8028.755       4839.9888      3880.9247      101.10578      1743.0386      213.22555    
   7658500   263.36651     -355.01766     -277.84265     -354.99599      0              7290.3736      45.727183      20.047001      20.857         19119.464      8772.0515      5867.25        7231.8193     -238.07121      1276.9221     -1068.5469    
   7659000   263.48604     -352.55778     -275.34775     -352.54934      0              4436.9268      45.65882       20.047001      20.857         19090.879      6921.3433      2757.0064      3632.4306      942.79144      970.84691     -367.2787     
   7659500   263.1419      -353.30811     -276.19892     -353.31444      0              4307.4357      45.575014      20.047001      20.857         19055.838      3376.2608      4813.8192      4732.2271     -1607.506       441.2358      -1219.7309    
   7660000   259.28001     -352.64377     -276.66624     -352.64172      0              6905.6439      45.355951      20.047001      20.857         18964.244      5760.5531      9085.432       5870.9466      555.69801      1087.0413     -2018.1373    
   7660500   254.73767     -350.92858     -276.28209     -350.90924      0              6058.8812      45.248246      20.047001      20.857         18919.21       7980.521       3875.6101      6320.5124     -206.90092     -1394.4953     -1553.8485    
   7661000   253.1506      -349.75466     -275.57324     -349.73664      0              5546.9192      45.517874      20.047001      20.857         19031.947      9799.9152      3749.6692      3091.1732     -1604.7959      1355.44        646.12557    
   7661500   262.26925     -351.62205     -274.76857     -351.63913      0              4746.3757      45.811848      20.047001      20.857         19154.864      5705.5384      6121.1259      2412.4628      277.06557      235.57645     -284.24528    
   7662000   262.78859     -353.15407     -276.1484      -353.14163      0              5881.2517      45.618809      20.047001      20.857         19074.15       4269.3474      7054.6783      6319.7293     -1198.7515     -243.64833     -327.62264    
   7662500   268.45032     -354.28699     -275.62226     -354.28225      0              5127.6295      45.49084       20.047001      20.857         19020.644      6041.0896      2640.4728      6701.326       462.19747      674.75873     -876.6204     
   7663000   260.63363     -355.62559     -279.2514      -355.61529      0              5317.2236      45.649682      20.047001      20.857         19087.059      8172.3532      3310.5649      4468.7527      725.97118     -399.51581      517.50813    
   7663500   252.49616     -353.28145     -279.29181     -353.30202      0              5108.264       45.820899      20.047001      20.857         19158.648      6951.7947      3353.4632      5019.5339     -1613.2686      455.35438     -829.25418    
   7664000   255.89773     -351.79836     -276.81195     -351.8092       0              6393.7292      45.590979      20.047001      20.857         19062.514      7178.5971      5619.9425      6382.648       536.70725      1.9876392     -332.2906     
   7664500   263.9741      -351.73958     -274.38652     -351.74517      0              5729.8705      45.51044       20.047001      20.857         19028.839      9630.3215      3383.9074      4175.3825      119.22288     -27.08664       936.30672    
   7665000   262.5149      -349.70297     -272.77751     -349.72319      0              3463.2231      45.750839      20.047001      20.857         19129.354      4712.8837      4505.3793      1171.4063     -732.78046      533.00175     -1940.2324    
   7665500   259.21854     -351.52294     -275.56342     -351.56734      0              4058.0336      45.944459      20.047001      20.857         19210.311      3040.5332      4844.8114      4288.7561     -854.42185     -1833.6542      1770.6494    
   7666000   262.7577      -353.51501     -276.5184      -353.50538      0              8543.5028      45.3751        20.047001      20.857         18972.25       7976.8999      9886.2873      7767.3212     -2180.39        2602.6558     -598.62189    
   7666500   265.28885     -351.32261     -273.58429     -351.33151      0              6848.7276      45.154816      20.047001      20.857         18880.145      7264.9936      7452.5297      5828.6596     -96.430658     -389.94183     -1733.9844    
   7667000   257.41137     -353.52558     -278.09562     -353.53941      0              5363.7269      45.635627      20.047001      20.857         19081.182      5668.7575      5589.6551      4832.7682     -1382.2781      634.49215     -355.03524    
   7667500   256.43069     -350.73764     -275.59505     -350.74928      0              6153.3944      45.575598      20.047001      20.857         19056.083      6136.4891      5027.9755      7295.7187      615.6091      -2204.3936     -429.98892    
   7668000   258.02361     -349.86311     -274.25374     -349.88993      0              5562.5908      45.295895      20.047001      20.857         18939.133      8658.4146      2524.7839      5504.574      -344.92546     -834.45232     -530.05944    
   7668500   256.36512     -349.34369     -274.22031     -349.36439      0              3406.894       45.367118      20.047001      20.857         18968.913      5107.6582      1667.6708      3445.3529     -287.38719     -885.89374     -1712.1114    
   7669000   256.17015     -348.77773     -273.71148     -348.79266      0              7910.9697      45.40933       20.047001      20.857         18986.563      8718.1977      8399.8232      6614.8881     -557.7653      -458.96555     -1246.7527    
   7669500   270.50481     -350.35133     -271.08457     -350.3443       0              3992.0432      45.486017      20.047001      20.857         19018.627      4165.3703      3526.2189      4284.5404     -382.00619     -930.18167     -1915.4826    
   7670000   259.20219     -349.29494     -273.34021     -349.32409      0              6423.1814      45.665009      20.047001      20.857         19093.467      5961.213       6490.9787      6817.3523      1104.2049     -390.84727     -820.65464    
   7670500   254.05705     -349.6079      -275.16086     -349.60704      0              3877.8564      45.753283      20.047001      20.857         19130.376      2204.3003      5065.4791      4363.7897     -364.16995     -147.85049     -125.1591     
   7671000   254.34172     -354.60824     -280.07779     -354.58712      0              4342.6846      45.622349      20.047001      20.857         19075.63       7240.3539      2337.7969      3449.903      -501.25923      705.50021      520.61793    
   7671500   261.3097      -352.35774     -275.78544     -352.34696      0              6524.0868      45.51275       20.047001      20.857         19029.805      9614.5382      3881.5343      6076.188       144.06704      1672.3255      2994.2124    
   7672000   265.88722     -352.36281     -274.44914     -352.34259      0              6130.2191      45.696272      20.047001      20.857         19106.539      4998.8136      6005.4017      7386.442      -379.57088     -1104.2921      1403.0151    
   7672500   263.50559     -349.33708     -272.12132     -349.35404      0              4470.3228      45.753632      20.047001      20.857         19130.522      3945.3522      5726.6298      3738.9864     -1259.5817      28.06785      -1337.4653    
   7673000   260.55233     -351.57032     -275.21996     -351.56287      0              5175.9253      45.4631        20.047001      20.857         19009.045      6724.2496      4561.8843      4241.6421     -897.01788      1213.0903     -781.86296    
   7673500   256.3092      -350.77405     -275.66706     -350.77898      0              4004.738       45.409034      20.047001      20.857         18986.439      4395.5752      4355.2858      3263.3529     -596.54625      236.46187      1008.8111    
   7674000   257.58494     -350.94506     -275.46423     -350.96608      0              2634.9792      45.645519      20.047001      20.857         19085.318      806.0549       3000.0453      4098.8373     -498.05658      43.561216     -238.18945    
   7674500   262.47857     -350.28989     -273.37507     -350.30376      0              7194.8398      45.682819      20.047001      20.857         19100.914      7296.0142      6673.0888      7615.4165      239.17488      367.60417      1655.3213    
   7675000   252.91725     -348.76575     -274.65271     -348.78728      0              4641.2261      45.635579      20.047001      20.857         19081.162      4010.6758      4564.7641      5348.2385     -827.19448     -1883.8981     -765.55391    
   7675500   262.32698     -349.64312     -272.77272     -349.65205      0              8000.5312      45.426729      20.047001      20.857         18993.837      11120.576      6338.5439      6542.4733     -1151.4453     -418.02154      2165.772     
   7676000   262.65739     -349.82732     -272.8601      -349.8244       0              5485.0646      45.63014       20.047001      20.857         19078.888      7268.8152      4107.1168      5079.2619     -598.30652     -785.56409      1714.6588    
   7676500   260.91865     -349.04073     -272.58302     -349.0257       0              5305.4174      45.664639      20.047001      20.857         19093.313      6491.9656      5918.6576      3505.6292     -1830.9336     -990.33708     -1175.9758    
   7677000   255.89085     -349.55284     -274.56844     -349.56623      0              3480.9668      45.847013      20.047001      20.857         19169.567      2545.1004      4136.9276      3760.8724      92.768365     -1035.5236      54.698739    
   7677500   256.87238     -350.37633     -275.10431     -350.4021       0              6178.5398      45.818005      20.047001      20.857         19157.438      7507.7766      5679.0132      5348.8297     -728.46278     -548.20705     -986.33597    
   7678000   253.21236     -350.06495     -275.86544     -350.08202      0              5656.7131      45.423811      20.047001      20.857         18992.618      6405.957       4198.3825      6365.8         113.49552     -866.50507     -306.84981    
[...]
  11323500   259.67572     -352.14473     -276.05124     -352.06736      0              5148.1606      45.593218      20.047001      20.857         19063.45       6938.7991      4088.2215      4417.4612     -30.250586      1915.7857     -2291.085     
  11324000   264.67974     -355.79169     -278.23186     -355.73774      0              7013.644       45.34476       20.047001      20.857         18959.565      9762.9331      7200.6962      4077.3028     -270.14422     -1175.2094      433.07758    
  11324500   253.8743      -354.9126      -280.51912     -354.83991      0              7723.3125      45.502736      20.047001      20.857         19025.618      9303.6513      6670.5956      7195.6907      401.0329       912.11042      1752.1405    
  11325000   259.06073     -354.28971     -278.37643     -354.26361      0              3217.0366      45.771397      20.047001      20.857         19137.95       5561.0783      2915.6447      1174.3868     -2477.8393      455.65843     -932.56416    
  11325500   265.61408     -352.34134     -274.50772     -352.28929      0              4944.4094      45.567734      20.047001      20.857         19052.795      5316.5833      4983.0447      4533.6002     -826.78709      1012.0322     -660.54216    
  11326000   255.53352     -352.53228     -277.65259     -352.47765      0              4983.4583      45.456379      20.047001      20.857         19006.235      6307.3144      4700.4897      3942.5707      106.19214     -752.26146      1093.3894    
  11326500   258.4643      -353.23636     -277.49786     -353.20664      0              6817.925       45.473138      20.047001      20.857         19013.242      7766.3966      8856.9029      3830.4756      584.57649     -594.46707      1039.5388    
  11327000   255.13719     -352.24373     -277.48018     -352.216        0              6080.4182      45.527768      20.047001      20.857         19036.084      6495.1121      6098.4221      5647.7204     -1511.1366     -568.27067      81.416751    
  11327500   263.26726     -355.86941     -278.72348     -355.82952      0              4806.3391      45.671782      20.047001      20.857         19096.299      8182.9064      1879.1607      4356.9502     -1268.8023     -1542.3736      739.90631    
  11328000   254.31151     -352.77317     -278.25157     -352.75892      0              3134.482       46.041183      20.047001      20.857         19250.753      2650.8469      4609.2826      2143.3164      300.32263     -472.89924      210.29295    
  11328500   262.149       -351.51639     -274.69815     -351.50773      0              5818.6853      45.917622      20.047001      20.857         19199.09       6687.8537      3465.3585      7302.8436     -606.71844     -1408.3517     -345.85728    
  11329000   260.46432     -352.90372     -276.57915     -352.9029       0              3082.7474      45.723748      20.047001      20.857         19118.027      4016.1348      3191.8781      2040.2294     -338.57497      60.467249      943.09779    
  11329500   268.6278      -353.15912     -274.44238     -353.1498       0              5832.1603      45.901956      20.047001      20.857         19192.539      6466.7198      6247.3256      4782.4354     -84.14021       603.51529     -184.62203    
  11330000   258.70313     -351.71668     -275.90819     -351.6989       0              3600.2487      45.950669      20.047001      20.857         19212.908      4179.8032      3203.9495      3416.9934     -568.42002     -696.75583     -393.5566     
  11330500   270.94369     -353.84968     -274.45431     -353.82384      0              5142.2009      45.653291      20.047001      20.857         19088.568      9359.3958      3149.1975      2918.0093     -556.94771      720.76658      344.36847    
  11331000   258.63232     -349.55624     -273.7685      -349.53794      0              4692.2927      45.629679      20.047001      20.857         19078.695      5988.2448      4180.2644      3908.3691     -84.469928     -1475.203       249.62017    
  11331500   263.27131     -350.8187      -273.67159     -350.80976      0              5485.1952      45.887185      20.047001      20.857         19186.364      5186.7896      6277.2622      4991.5338      2458.3466      933.62553      380.50242    
  11332000   261.48068     -351.02908     -274.40667     -351.00903      0              7083.463       46.001606      20.047001      20.857         19234.205      7066.1533      8715.3295      5468.906      -771.98123     -1201.1468      996.41946    
  11332500   265.53003     -349.5271      -271.7181      -349.50625      0              6072.4753      45.783694      20.047001      20.857         19143.092      6336.3875      6233.3216      5647.7166      1518.2186     -577.25802      318.78478    
  11333000   267.73343     -351.47541     -273.02075     -351.45194      0              7022.5162      45.483364      20.047001      20.857         19017.518      9097.712       5905.593       6064.2436      261.4689      -1019.178      -262.77913    
  11333500   266.16714     -352.4666      -274.47092     -352.47631      0              5279.2282      45.729021      20.047001      20.857         19120.232      4955.5821      5037.5426      5844.5598      70.251417      525.21083      205.85789    
  11334000   256.29669     -354.409       -279.30567     -354.38904      0              6300.2295      45.786472      20.047001      20.857         19144.253      6611.0238      6617.5509      5672.1138     -1300.7497     -290.24171     -784.53927    
  11334500   253.62763     -351.71713     -277.39593     -351.69748      0              5996.2364      45.889555      20.047001      20.857         19187.355      8164.4301      6351.0321      3473.2469      1081.3038      473.48978      731.99016    
  11335000   262.43526     -352.08581     -275.18368     -352.09511      0              5683.3697      45.903276      20.047001      20.857         19193.091      6654.6594      6571.5724      3823.8772      1245.2242      55.279356     -530.67432    
  11335500   257.40714     -351.41639     -275.98767     -351.43549      0              6806.7687      45.646554      20.047001      20.857         19085.751      7095.7046      7635.5085      5689.0929     -1436.6714      102.31831      30.294548    
  11336000   260.02348     -354.52476     -278.32936     -354.52184      0              4233.4701      45.703127      20.047001      20.857         19109.405      4713.9725      4216.9067      3769.5312     -185.40739      470.69878     -906.15845    
  11336500   258.44351     -352.28449     -276.55208     -352.29637      0              6474.5527      45.637928      20.047001      20.857         19082.144      5942.1927      6952.9566      6528.5089     -1910.7851      369.93985     -419.6638     
  11337000   255.41905     -352.04632     -277.20017     -352.02709      0              8466.44        45.666734      20.047001      20.857         19094.189      8937.9978      7630.0073      8831.3149     -1636.2906      800.76701      1885.8745    
  11337500   258.79999     -351.6371      -275.80022     -351.61828      0              6350.2439      45.743191      20.047001      20.857         19126.157      6640.429       6997.5364      5412.7663     -719.41936     -322.49383      82.374241    
  11338000   260.00305     -351.97797     -275.78856     -351.97484      0              4792.4473      45.943862      20.047001      20.857         19210.061      5764.0888      2027.5874      6585.6659     -132.0541       746.57292      1861.7194    
  11338500   263.6018      -352.07365     -274.82969     -352.07967      0              5930.2188      45.829148      20.047001      20.857         19162.097      5793.7989      6089.7844      5907.0732      834.40394     -589.48811      799.50876    
  11339000   257.50407     -352.62907     -277.17194     -352.64585      0              5296.4284      45.668901      20.047001      20.857         19095.094      4498.6518      4157.0959      7233.5376      198.32777      1321.3676      1118.8449    
  11339500   259.45699     -353.20022     -277.17083     -353.20805      0              6913.1814      45.727401      20.047001      20.857         19119.555      7269.9513      7741.6295      5727.9634      209.24313     -1167.1341      719.34274    
  11340000   254.65627     -350.78903     -276.1664      -350.77708      0              5717.5925      45.946882      20.047001      20.857         19211.324      5751.9077      6384.7098      5016.1599     -958.2162      -1863.6442     -480.655      
  11340500   254.93927     -351.95133     -277.24577     -351.94223      0              4127.5966      45.910922      20.047001      20.857         19196.288      3774.0067      3814.2214      4794.5615     -2510.7982      297.49042      390.7778     
  11341000   252.98242     -353.20293     -279.07079     -353.18775      0              6032.8969      45.430639      20.047001      20.857         18995.472      6994.1453      7222.9721      3881.5734      175.84142      645.40787      948.73604    
  11341500   257.86082     -353.19251     -277.63085     -353.19042      0              5912.241       45.381878      20.047001      20.857         18975.085      4687.3451      6982.6581      6066.7198     -229.71811     -704.76805      982.42515    
  11342000   261.10524     -350.59466     -274.08228     -350.5926       0              4976.3591      45.60424       20.047001      20.857         19068.059      5799.2027      5544.723       3585.1516     -190.15382      988.88633      741.25731    
  11342500   263.97853     -353.60245     -276.2481      -353.59435      0              5899.8677      45.967345      20.047001      20.857         19219.88       4418.5812      6509.0887      6771.9331      389.29411     -176.53123      1196.2736    
  11343000   269.28222     -352.36029     -273.45178     -352.34186      0              3224.4054      45.672266      20.047001      20.857         19096.502      3966.568       2027.5041      3679.1439      266.86995      1440.8849      983.2318     
  11343500   256.96571     -350.90945     -275.61008     -350.88349      0              6178.1184      45.458721      20.047001      20.857         19007.214      4407.7721      7637.4835      6489.0996      647.82127      2846.2802      1279.0993    
  11344000   258.86048     -352.83249     -276.97789     -352.81426      0              4102.749       45.830124      20.047001      20.857         19162.505      6161.5803      3186.7765      2959.8902      1219.8617      115.04703      1444.76      
  11344500   265.57763     -353.14891     -275.32597     -353.14463      0              4164.5262      45.94961       20.047001      20.857         19212.465      3147.0058      5095.3312      4251.2415      858.31973     -2283.7516      796.21835    
  11345000   258.41205     -353.19462     -277.47142     -353.17818      0              4162.5532      45.549997      20.047001      20.857         19045.378      4695.4092      2845.1643      4947.0862     -1371.6956      321.45826      1133.0242    
  11345500   262.99509     -355.55391     -278.48773     -355.52619      0              4824.989       45.340419      20.047001      20.857         18957.75       7281.1208      3997.9261      3195.9203     -5.9872951     -1850.9211     -845.56481    
  11346000   252.62412     -353.25644     -279.2293      -353.2627       0              7162.1124      45.548192      20.047001      20.857         19044.624      9577.5783      6183.9113      5724.8476     -1237.9378     -916.83191      2674.4541    
  11346500   254.30422     -350.45791     -275.93844     -350.45597      0              3701.3987      45.825384      20.047001      20.857         19160.523      4523.5794      3486.0568      3094.5598      981.03204      563.34419     -409.74367    
  11347000   259.50993     -349.62274     -273.57783     -349.61455      0              6423.8001      45.840248      20.047001      20.857         19166.738      4973.4444      7631.3082      6666.6477     -1142.8751     -221.49429      789.33208    
  11347500   262.63961     -352.26729     -275.30528     -352.28396      0              5103.2413      45.873954      20.047001      20.857         19180.831      3483.466       7007.6422      4818.6157     -906.15964     -284.9869       1470.162     
  11348000   265.60012     -351.00213     -273.1726      -351.00325      0              4109.9206      45.842707      20.047001      20.857         19167.767      6350.3237      1242.1735      4737.2646     -1843.4957      932.553        611.39395    
  11348500   255.39027     -354.06374     -279.22603     -354.06678      0              6206.1451      45.900225      20.047001      20.857         19191.816      8404.1345      4272.5496      5941.7511     -413.42259      253.50638      2073.4781    
  11349000   262.54197     -349.88736     -272.95396     -349.87948      0              4353.3945      45.776058      20.047001      20.857         19139.899      6109.1472      2454.9235      4496.1127     -1404.6116      190.11921      306.65396    
  11349500   263.10841     -352.13652     -275.03714     -352.14315      0              5014.8126      45.53173       20.047001      20.857         19037.741      4220.908       6571.9921      4251.5379     -826.25292      108.84253      69.427624    
  11350000   267.58814     -354.64676     -276.23467     -354.64251      0              5249.371       45.407619      20.047001      20.857         18985.847      6125.3782      5682.9263      3939.8084      776.07985      343.92575      287.38021    
  11350500   258.98335     -351.06183     -275.17123     -351.04406      0              3248.3907      45.712571      20.047001      20.857         19113.354      4185.3734      1152.7446      4407.0542     -694.92179      943.67589      407.64415    
  11351000   260.19035     -352.35682     -276.11253     -352.34028      0              5382.7424      46.030608      20.047001      20.857         19246.332      6102.5552      4356.7549      5688.917      -192.4388       1232.7641     -316.36415    
  11351500   265.41344     -355.56165     -277.78682     -355.53267      0              4379.7172      45.744441      20.047001      20.857         19126.679      6340.0636      3455.8681      3343.2198     -903.20953      34.440185     -207.93563    
  11352000   262.24898     -351.85497     -275.00743     -351.81983      0              6644.9271      45.278463      20.047001      20.857         18931.845      7394.7449      7325.4468      5214.5895     -151.66878      854.94406      767.98025    
  11352500   259.64012     -351.7223      -275.63925     -351.70464      0              5106.8782      45.31839       20.047001      20.857         18948.539      5778.7189      5387.3602      4154.5556      11.019792      170.65543      740.10659    
  11353000   255.20981     -352.22475     -277.43992     -352.2105       0              5352.1473      45.540684      20.047001      20.857         19041.485      6867.3095      3409.5414      5779.5911      144.09605      713.96545      2074.9792    
  11353500   261.77709     -350.90309     -274.19383     -350.88677      0              3371.1814      45.871432      20.047001      20.857         19179.777      3903.579       3874.7996      2335.1655     -845.57835     -388.8179      -352.51099    
  11354000   254.0688      -350.44157     -275.99109     -350.44272      0              8102.9185      45.798288      20.047001      20.857         19149.194      10739.73       7362.7119      6206.3134      1233.7863      339.81959      2085.1267    
  11354500   256.2075      -351.90181     -276.82462     -351.92244      0              3498.4936      45.770607      20.047001      20.857         19137.62       4021.7547      3677.8261      2795.9001      293.7621       262.29651     -273.52775    
  11355000   261.63516     -349.82323     -273.15556     -349.84885      0              7547.7057      46.027676      20.047001      20.857         19245.106      8242.0878      7514.9414      6886.0878     -1399.2024     -1507.5457     -49.254427    
  11355500   263.48112     -352.18606     -274.97747     -352.20703      0              4319.9093      46.089842      20.047001      20.857         19271.099      5917.7601      2660.1302      4381.8376      1194.3327     -874.87357     -853.6629     
  11356000   258.22121     -351.20183     -275.53456     -351.23365      0              5181.7868      45.659089      20.047001      20.857         19090.992      4316.3925      5013.1714      6215.7966     -272.70809     -2174.9967     -1230.8022    
  11356500   261.81753     -352.40595     -275.68483     -352.42642      0              4574.9809      45.702303      20.047001      20.857         19109.061      6594.8403      2002.4986      5127.6037      808.85037     -492.26456      381.64224    
  11357000   270.34965     -353.47097     -274.24966     -353.4555       0              4713.0722      45.832796      20.047001      20.857         19163.622      5241.3222      2869.454       6028.4404     -816.50995     -2191.4973      654.17586    
  11357500   265.3303      -354.62912     -276.87865     -354.64316      0              4939.3027      45.942722      20.047001      20.857         19209.585      7039.7176      5082.6486      2695.5418      103.91598      1885.8104      373.25356    
  11358000   266.11211     -354.47157     -276.49201     -354.4599       0              5632.2536      45.685941      20.047001      20.857         19102.219      4797.4597      7020.2894      5079.0118      965.7089      -1084.9657     -512.9123     
  11358500   259.59835     -355.99527     -279.92445     -355.96827      0              4695.218       45.628231      20.047001      20.857         19078.09       3425.5114      3774.5061      6885.6364     -255.83707      468.88501      218.98083    
  11359000   264.30569     -354.05423     -276.604       -354.02964      0              4286.1763      45.898028      20.047001      20.857         19190.897      6076.8037      3532.977       3248.7481      615.01365     -626.69984      1323.9995    
WARNING: Wall time limit reached (../timer.cpp:193)
Loop time of 85812.9 on 4 procs for 3827000 steps with 2268 atoms

Performance: 1.927 ns/day, 12.457 hours/ns, 44.597 timesteps/s
975.1% CPU use with 4 MPI tasks x no OpenMP threads

MPI task timing breakdown:
Section |  min time  |  avg time  |  max time  |%varavg| %total
---------------------------------------------------------------
Pair    | 48421      | 48698      | 48924      |  93.5 | 56.75
Bond    | 0.43705    | 0.48119    | 0.51208    |   4.5 |  0.00
Neigh   | 1249.2     | 1285.6     | 1310.7     |  66.0 |  1.50
Comm    | 4841.2     | 5015.6     | 5306.9     | 253.4 |  5.84
Output  | 610.02     | 610.11     | 610.37     |   0.6 |  0.71
Modify  | 30115      | 30192      | 30316      |  46.8 | 35.18
Other   |            | 11.21      |            |       |  0.01

Nlocal:            567 ave         580 max         551 min
Histogram: 1 0 0 1 0 0 0 0 1 1
Nghost:        3747.25 ave        3784 max        3713 min
Histogram: 1 1 0 0 0 0 0 1 0 1
Neighs:              0 ave           0 max           0 min
Histogram: 4 0 0 0 0 0 0 0 0 0
FullNghs:       143580 ave      147596 max      139611 min
Histogram: 1 0 1 0 0 0 0 1 0 1

Total # of neighbors = 574320
Ave neighs/atom = 253.22751
Ave special neighs/atom = 0
Neighbor list builds = 382700
Dangerous builds not checked

unfix		4
unfix		3
unfix		1

write_data	data.final.${pid}
write_data	data.final.0
System init for write_data ...
Generated 0 of 1 mixed pair_coeff terms from geometric mixing rule
write_restart	restart.lmp.${pid}
write_restart	restart.lmp.0
System init for write_restart ...
Generated 0 of 1 mixed pair_coeff terms from geometric mixing rule
Total wall time: 23:50:30
