LAMMPS (23 Jun 2022)
echo both

include		in.partitions
variable        pid world 0
include		in.temp
variable	temperature equal 260.0
variable        tempDamp equal 0.100 # this is 0.1 ps
include		in.pressure
variable        pressure equal 6079.5
variable        pressureDamp equal 1.0 #this is 1ps
include		in.seed
variable        seed world 745823

units           metal
atom_style	full
read_restart	restart.lmp.${pid}
read_restart	restart.lmp.0
Reading restart file ...
  restart file = 23 Jun 2022, LAMMPS = 23 Jun 2022
  restoring atom style full from restart
  orthogonal box = (0.85119259 0 0) to (46.599506 20.047001 20.857)
  4 by 1 by 1 MPI processor grid
Summary of lammps deepmd module ...
  >>> Info of deepmd-kit:
  installed to:       /u/sigbjobo/software/DEEPMD_FROM_SOURCE/deepmd-kit/install
  source:             v2.1.3
  source branch:       master
  source commit:      5a32c49
  source commit at:   2022-07-01 09:52:58 +0800
  surpport model ver.:1.1 
  build float prec:   double
  build with tf inc:  /u/sigbjobo/software/DEEPMD_FROM_SOURCE/tensorflow/install/include;/u/sigbjobo/software/DEEPMD_FROM_SOURCE/tensorflow/install/include
  build with tf lib:  /u/sigbjobo/software/DEEPMD_FROM_SOURCE/tensorflow/install/lib/libtensorflow_cc.so;/u/sigbjobo/software/DEEPMD_FROM_SOURCE/tensorflow/install/lib/libtensorflow_framework.so
  set tf intra_op_parallelism_threads: 0
  set tf inter_op_parallelism_threads: 0
  >>> Info of lammps module:
  use deepmd-kit at:  /u/sigbjobo/software/DEEPMD_FROM_SOURCE/deepmd-kit/install
  source:             v2.1.3
  source branch:      master
  source commit:      5a32c49
  source commit at:   2022-07-01 09:52:58 +0800
  build float prec:   double
  build with tf inc:  /u/sigbjobo/software/DEEPMD_FROM_SOURCE/tensorflow/install/include;/u/sigbjobo/software/DEEPMD_FROM_SOURCE/tensorflow/install/include
  build with tf lib:  /u/sigbjobo/software/DEEPMD_FROM_SOURCE/tensorflow/install/lib/libtensorflow_cc.so;/u/sigbjobo/software/DEEPMD_FROM_SOURCE/tensorflow/install/lib/libtensorflow_framework.so
  restoring pair style deepmd from restart
  2268 atoms
Finding 1-2 1-3 1-4 neighbors ...
  special bond factors lj:    0        0        0       
  special bond factors coul:  0        0        0       
     0 = max # of 1-2 neighbors
     0 = max # of 1-3 neighbors
     0 = max # of 1-4 neighbors
     1 = max # of special neighbors
  special bonds CPU = 0.000 seconds
  read_restart CPU = 0.006 seconds
include 	in.setup
variable	out_freq equal 500
variable	out_freq2 equal 1000
variable	out_freq3 equal 5000

timestep        0.0005

neigh_modify    delay 7 every 1

include         in.deepmd
# This is deepMD model

# create groups ###
#group ox type 2
#group hy type 1

mass 2 15.999
mass 1 1.008

pair_style      deepmd ../graph.pb
pair_coeff      * *

bond_style      none
angle_style     none
dihedral_style  none
improper_style  none
neigh_modify exclude none


neighbor        2.0 bin
neigh_modify    every 10 delay 0 check no

thermo          ${out_freq}
thermo          500
thermo_style 	custom step temp pe etotal epair emol press lx ly lz vol pxx pyy pzz pxy pxz pyz
#thermo_modify	flush yes
restart 	${out_freq} restart.lmp.${pid} restart2.lmp.${pid}
restart 	500 restart.lmp.${pid} restart2.lmp.${pid}
restart 	500 restart.lmp.0 restart2.lmp.${pid}
restart 	500 restart.lmp.0 restart2.lmp.0

include		in.dump
dump            myDump all atom ${out_freq3} dump.water.${pid}
dump            myDump all atom 5000 dump.water.${pid}
dump            myDump all atom 5000 dump.water.0
dump            myDump2 all dcd ${out_freq2} dump.dcd.${pid}
dump            myDump2 all dcd 1000 dump.dcd.${pid}
dump            myDump2 all dcd 1000 dump.dcd.0
dump_modify     myDump append yes
dump_modify     myDump2 append yes


timer           timeout 23:50:00 every 1000
New timer settings: style=normal  mode=nosync  timeout=23:50:00

fix             1 all plumed plumedfile plumed.dat outfile plumed.out
fix             3 all nph x ${pressure} ${pressure} ${pressureDamp}
fix             3 all nph x 6079.5 ${pressure} ${pressureDamp}
fix             3 all nph x 6079.5 6079.5 ${pressureDamp}
fix             3 all nph x 6079.5 6079.5 1
Resetting global fix info from restart file:
  fix style: nph, fix ID: 3
fix             4 all temp/csvr ${temperature} ${temperature} ${tempDamp} ${seed}
fix             4 all temp/csvr 260 ${temperature} ${tempDamp} ${seed}
fix             4 all temp/csvr 260 260 ${tempDamp} ${seed}
fix             4 all temp/csvr 260 260 0.1 ${seed}
fix             4 all temp/csvr 260 260 0.1 745823
Resetting global fix info from restart file:
  fix style: temp/csvr, fix ID: 4

run             40000000 upto

CITE-CITE-CITE-CITE-CITE-CITE-CITE-CITE-CITE-CITE-CITE-CITE-CITE

Your simulation uses code contributions which should be cited:

- USER-DEEPMD package:

@article{Wang_ComputPhysCommun_2018_v228_p178,
  author = {Wang, Han and Zhang, Linfeng and Han, Jiequn and E, Weinan},
  doi = {10.1016/j.cpc.2018.03.016},
  url = {https://doi.org/10.1016/j.cpc.2018.03.016},
  year = 2018,
  month = {jul},
  publisher = {Elsevier {BV}},
  volume = 228,
  journal = {Comput. Phys. Commun.},
  title = {{DeePMD-kit: A deep learning package for many-body potential energy representation and molecular dynamics}},
  pages = {178--184}
}

CITE-CITE-CITE-CITE-CITE-CITE-CITE-CITE-CITE-CITE-CITE-CITE-CITE

Generated 0 of 1 mixed pair_coeff terms from geometric mixing rule
All restart file global fix info was re-assigned
Neighbor list info ...
  update every 10 steps, delay 0 steps, check no
  max neighbors/atom: 2000, page size: 100000
  master list distance cutoff = 8
  ghost atom cutoff = 8
  binsize = 4, bins = 12 6 6
  1 neighbor lists, perpetual/occasional/extra = 1 0 0
  (1) pair deepmd, perpetual
      attributes: full, newton on
      pair build: full/bin
      stencil: full/bin/3d
      bin: standard
Per MPI rank memory allocation (min/avg/max) = 6.187 | 6.19 | 6.193 Mbytes
   Step          Temp          PotEng         TotEng         E_pair         E_mol          Press            Lx             Ly             Lz           Volume          Pxx            Pyy            Pzz            Pxy            Pxz            Pyz      
  26548000   264.90016     -355.076       -277.45158     -355.076        0              5055.3603      45.748314      20.047001      20.857         19128.299      4485.5124      6322.0412      4358.5272     -66.088437     -912.72957     -738.21935    
  26548500   260.01362     -358.13122     -281.93871     -358.02071      0              5756.6792      45.822539      20.047001      20.857         19159.334      5457.1404      6226.8836      5586.0135      168.25501     -632.97173      2306.3407    
  26549000   253.01944     -352.31185     -278.16886     -352.20748      0              5175.6135      45.568066      20.047001      20.857         19052.933      6030.9974      4365.4983      5130.3448     -273.4532       1112.2948     -2425.8406    
  26549500   258.10282     -354.0926      -278.46002     -354.01152      0              5271.7697      45.466859      20.047001      20.857         19010.617      4629.8129      5216.2313      5969.2649      536.32659     -603.93566      1959.0022    
  26550000   255.62608     -355.04805     -280.14123     -354.9455       0              6727.2381      45.498102      20.047001      20.857         19023.68       5982.8042      8241.2664      5957.6436      441.19228     -197.31619     -91.116017    
  26550500   258.98497     -354.18466     -278.29358     -354.07725      0              5728.9394      45.741436      20.047001      20.857         19125.423      5306.7445      6357.9906      5522.0832     -95.005773      764.1175       181.35627    
  26551000   255.0668      -354.73861     -279.99568     -354.62717      0              6384.3876      45.49018       20.047001      20.857         19020.368      7042.359       5971.8189      6138.9848      794.36434     -154.10735     -444.34553    
  26551500   248.5198      -355.23635     -282.41191     -355.13209      0              6512.8605      45.406909      20.047001      20.857         18985.551      4231.8384      7534.1972      7772.5459     -939.24392     -297.59164      1811.8066    
  26552000   255.01844     -352.61951     -277.89075     -352.50709      0              6229.993       45.4603        20.047001      20.857         19007.874      5400.9017      6553.003       6736.0744     -673.01855     -2007.9716      418.98892    
  26552500   256.89701     -355.15971     -279.88048     -355.05414      0              4922.524       45.529467      20.047001      20.857         19036.794      3650.6144      6594.8935      4522.064       344.86961      776.1798      -581.84719    
  26553000   261.08859     -354.15311     -277.6456      -354.03938      0              6254.4603      45.539811      20.047001      20.857         19041.119      6361.4047      5737.6483      6664.3279      302.71965     -844.69181     -324.9451     
  26553500   260.45344     -356.58959     -280.2682      -356.51141      0              8217.6678      45.376204      20.047001      20.857         18972.712      8338.4872      7662.9294      8651.5869      81.357391     -937.29745      150.71559    
  26554000   259.92775     -353.89528     -277.72794     -353.79091      0              5537.7674      45.191637      20.047001      20.857         18895.541      9264.7723      2794.8243      4553.7055     -983.93407      994.12188      2029.1133    
  26554500   260.61527     -354.27257     -277.90376     -354.16071      0              5612.2032      45.525651      20.047001      20.857         19035.199      6633.0773      5222.1409      4981.3913      940.30917      25.01953      -804.63937    
  26555000   259.05576     -353.94611     -278.03428     -353.84385      0              3171.7825      45.845138      20.047001      20.857         19168.783      5328.6137      3004.874       1181.8599     -1021.21        116.34755      1228.7246    
  26555500   261.68054     -356.28003     -279.59906     -356.17358      0              5039.717       45.691942      20.047001      20.857         19104.728      5350.9079      5275.9161      4492.3271      1350.6024      238.86849     -2187.5767    
  26556000   264.90655     -353.21861     -275.59231     -353.12687      0              6505.4025      45.155898      20.047001      20.857         18880.598      9071.0061      4973.4449      5471.7564      1539.3478      1802.4469     -141.8914     
  26556500   278.08369     -353.53681     -272.04918     -353.44409      0              5591.5808      45.313657      20.047001      20.857         18946.56       3886.8391      7727.5433      5160.36       -1180.3988     -834.11852     -2414.5534    
  26557000   269.30136     -354.29444     -275.38033     -354.19893      0              3169.9652      45.952178      20.047001      20.857         19213.539      4538.543       2511.6305      2459.722      -392.11619      195.938       -673.42592    
  26557500   255.31308     -354.92394     -280.10885     -354.81086      0              4396.0284      46.014286      20.047001      20.857         19239.507      5438.3681      4353.9227      3395.7943      2171.975      -643.29664      432.34265    
  26558000   262.50141     -355.77669     -278.85518     -355.6652       0              5797.2056      45.725276      20.047001      20.857         19118.666      7457.9367      4990.6791      4943.0011     -357.3816       212.79191     -500.23317    
  26558500   256.67796     -353.70501     -278.48996     -353.59925      0              3345.5854      45.490014      20.047001      20.857         19020.298      1968.8035      7694.2298      373.72291      233.44301     -997.11424      822.58699    
  26559000   254.6943      -353.99533     -279.36156     -353.88328      0              5762.7026      45.495444      20.047001      20.857         19022.569      6926.4746      5013.0688      5348.5645     -223.22252      596.48826      1797.8521    
  26559500   253.52093     -352.48291     -278.19298     -352.37847      0              5365.865       45.9224        20.047001      20.857         19201.088      4953.2701      4406.1159      6738.2092     -165.95464      480.35826     -2153.1454    
  26560000   261.22384     -354.93599     -278.38885     -354.83398      0              5289.9117      45.92747       20.047001      20.857         19203.208      6222.9321      5505.825       4140.9781     -228.67289      882.35243     -131.72277    
  26560500   260.74129     -354.98063     -278.57489     -354.86845      0              6785.0467      45.858414      20.047001      20.857         19174.334      10141.014      4920.6977      5293.4283     -463.85937      3191.2014     -1024.9283    
  26561000   248.46907     -353.93645     -281.12687     -353.8332       0              3781.5056      45.746406      20.047001      20.857         19127.501      6000.9158      3130.4587      2213.1422      450.47157      32.660056     -1500.6485    
  26561500   257.39571     -353.74078     -278.3154      -353.62745      0              5818.6182      45.67005       20.047001      20.857         19095.575      7392.8787      5271.0092      4791.9666      264.72358     -1496.883       1660.0862    
  26562000   255.84523     -353.58054     -278.60951     -353.48466      0              4482.8011      45.761827      20.047001      20.857         19133.949      5352.7161      4220.5019      3875.1854     -59.405172     -1045.2743     -876.79308    
  26562500   263.8318      -353.8475      -276.53614     -353.74972      0              5853.6314      45.614841      20.047001      20.857         19072.491      6653.4838      5248.1138      5659.2965     -1119.5162     -1770.03       -334.02191    
  26563000   257.25938     -353.9415      -278.55608     -353.86223      0              5877.6398      45.600009      20.047001      20.857         19066.289      6457.8482      4056.0145      7119.0566      523.77517     -957.73847      735.50691    
  26563500   264.34115     -354.90537     -277.44475     -354.79363      0              7268.2643      45.774292      20.047001      20.857         19139.16       7159.9258      8205.1253      6439.7419     -323.26683      314.6939       814.01976    
  26564000   260.99906     -357.66338     -281.18211     -357.54984      0              2407.4336      45.846311      20.047001      20.857         19169.273      2176.7344      3072.5228      1973.0437      1542.974       82.137336      1028.3702    
  26564500   258.93896     -355.62551     -279.74791     -355.51208      0              7116.5653      45.752716      20.047001      20.857         19130.139      6737.4656      7693.153       6919.0772     -2436.0696     -1021.8669     -904.0369     
  26565000   264.91918     -351.99045     -274.36045     -351.89487      0              4034.453       45.860651      20.047001      20.857         19175.269      4724.7139      4418.3975      2960.2476     -234.70397      1161.3803      216.59215    
  26565500   262.43012     -353.8659      -276.96528     -353.75236      0              3982.7763      46.178094      20.047001      20.857         19307.999      1094.6215      6440.2518      4413.4556     -1262.7019     -1058.5495      294.87104    
  26566000   267.38186     -352.83177     -274.48013     -352.71905      0              5677.7421      45.950985      20.047001      20.857         19213.04       6876.2906      6896.8901      3260.0457     -1022.7429      1515.2202     -127.41249    
  26566500   263.65623     -351.98803     -274.72812     -351.88527      0              6704.6062      45.661923      20.047001      20.857         19092.177      7623.9336      8470.2649      4019.6201     -569.77011      561.72812      1044.5431    
  26567000   261.60291     -356.6919      -280.03368     -356.57838      0              4580.3297      45.79495       20.047001      20.857         19147.798      4882.4129      3987.7045      4870.8718      416.68507      1633.2451      1796.0559    
  26567500   261.87838     -352.46984     -275.7309      -352.35841      0              6643.6886      45.741265      20.047001      20.857         19125.351      5100.6304      8446.8929      6383.5425     -1245.3466      85.248146      1243.0728    
  26568000   265.54691     -351.45261     -273.63866     -351.33896      0              5278.3099      45.513739      20.047001      20.857         19030.218      3173.9843      7307.4954      5353.4499      408.31193     -474.90329     -291.04758    
  26568500   263.45154     -353.0265      -275.82657     -352.91666      0              3887.6557      45.587798      20.047001      20.857         19061.184      5796.6186      2238.8216      3627.5269     -354.34277      677.78741      271.61247    
  26569000   249.22876     -353.4636      -280.43142     -353.37205      0              4168.6569      45.920864      20.047001      20.857         19200.445      4907.5467      3866.9188      3731.5052     -1605.455      -1.9306684     -1004.3432    
  26569500   254.91459     -353.69084     -278.99252     -353.57734      0              5636.2012      45.832981      20.047001      20.857         19163.7        6937.5474      6328.9414      3642.1147     -395.25049     -984.7136       114.87149    
  26570000   258.07317     -357.54791     -281.92402     -357.44149      0              6871.4862      45.707063      20.047001      20.857         19111.051      7003.3387      6460.0051      7151.1148      859.50267      1291.0343     -846.41163    
  26570500   254.29638     -355.53409     -281.01692     -355.4206       0              4976.1705      45.756723      20.047001      20.857         19131.815      7199.1043      3010.1536      4719.2534      544.34269     -1693.8545     -114.24707    
  26571000   256.84086     -354.74396     -279.48118     -354.6524       0              5763.3083      45.936599      20.047001      20.857         19207.025      6967.7634      5922.6904      4399.4712      224.71475      1340.1223     -115.83345    
  26571500   263.19604     -353.84739     -276.72233     -353.74076      0              5162.9959      45.800127      20.047001      20.857         19149.963      6729.8038      3582.4093      5176.7746     -131.68109      2255.9981     -1372.8183    
  26572000   259.18473     -352.99958     -277.04997     -352.90506      0              8635.1781      45.922413      20.047001      20.857         19201.093      10178.8        6650.9002      9075.8342     -601.53384      716.48165      2394.9891    
  26572500   253.09321     -352.02434     -277.85974     -351.91104      0              5544.7467      46.020841      20.047001      20.857         19242.248      6655.4206      4666.321       5312.4986     -260.20887      1620.1913     -807.68025    
  26573000   262.74192     -353.86633     -276.87434     -353.75957      0              5154.8873      45.602643      20.047001      20.857         19067.391      5890.8999      4444.3099      5129.4521      426.2522      -225.13066     -159.47345    
  26573500   254.21393     -352.48554     -277.99254     -352.37602      0              5280.4049      45.633319      20.047001      20.857         19080.217      6488.166       5115.1785      4237.8701      1206.5879      1016.1568     -550.02457    
  26574000   255.11631     -353.3013      -278.54387     -353.20304      0              5553.437       46.003158      20.047001      20.857         19234.854      7132.0798      4768.4664      4759.7649      547.36513      4.5174729      1553.0307    
  26574500   260.25604     -353.85072     -277.58718     -353.73757      0              5166.2328      45.934375      20.047001      20.857         19206.094      4905.906       5162.4274      5430.365       438.20592      261.5198       1423.3823    
  26575000   261.70165     -352.79182     -276.10467     -352.67859      0              7067.2928      45.47287       20.047001      20.857         19013.13       9481.3097      6641.5283      5079.0403     -844.66218      147.5729       42.374983    
  26575500   253.7272      -350.469       -276.11862     -350.36669      0              7508.2988      45.707167      20.047001      20.857         19111.094      8785.9982      6827.0851      6911.8131     -67.475485     -1965.7547      178.14938    
  26576000   258.42828     -352.72349     -276.99554     -352.62403      0              5344.3148      45.922216      20.047001      20.857         19201.011      5853.2301      4280.9942      5898.7202     -360.45553     -1456.6079      1642.4553    
  26576500   255.44247     -355.77058     -280.91757     -355.65774      0              6268.9727      45.94575       20.047001      20.857         19210.851      9319.9326      3544.8896      5942.0961      196.65027      1058.2503      418.3589     
  26577000   262.03868     -353.95309     -277.16718     -353.8597       0              7566.2258      45.867482      20.047001      20.857         19178.125      7718.2362      7324.708       7655.7333     -154.0119       779.70608      1802.6063    
  26577500   265.54456     -354.66932     -276.85607     -354.56858      0              6960.7307      45.962971      20.047001      20.857         19218.051      7723.9328      7338.4269      5819.8324      636.23443     -201.17899      1874.1291    
  26578000   257.5456      -355.73765     -280.26835     -355.62837      0              4248.0202      46.067607      20.047001      20.857         19261.802      6386.087       3978.4795      2379.4942      305.30515     -762.10842     -582.17801    
  26578500   258.78384     -355.42381     -279.59167     -355.315        0              5888.224       45.657897      20.047001      20.857         19090.494      7180.4018      4168.9812      6315.289       157.98215     -318.55258      1141.4344    
  26579000   258.9646      -356.3625      -280.47739     -356.25392      0              5085.5231      45.597396      20.047001      20.857         19065.197      6992.3263      6229.7999      2034.4433      745.08984      583.10395     -319.55905    
  26579500   258.56885     -355.866       -280.09686     -355.7687       0              6359.0887      45.781407      20.047001      20.857         19142.135      7780.829       5528.2552      5768.1818      450.02495      555.0504       489.72596    
  26580000   255.67232     -355.16887     -280.24851     -355.06248      0              4536.2952      45.964093      20.047001      20.857         19218.52       5639.2779      6120.2889      1849.3188     -10.852169     -1877.0268      1072.9105    
  26580500   250.60168     -353.95131     -280.51681     -353.8481       0              4838.6757      45.918609      20.047001      20.857         19199.503      8127.2897      3434.832       2953.9054     -820.9266       1488.5752     -262.65223    
  26581000   262.22484     -355.57031     -278.72984     -355.46385      0              5071.0688      45.693452      20.047001      20.857         19105.36       7032.6964      4312.6976      3867.8123      2686.4065      1301.9879      109.39133    
  26581500   255.19781     -354.37277     -279.59145     -354.28065      0              7220.3614      45.708862      20.047001      20.857         19111.803      9638.3737      5794.7492      6227.9612     -280.39402     -249.09717     -1268.4875    
  26582000   257.42324     -354.78409     -279.35065     -354.67922      0              4633.45        46.017025      20.047001      20.857         19240.652      2071.3682      6889.7542      4939.2275      393.76787     -1352.7992      809.96688    
  26582500   254.10169     -353.75687     -279.29675     -353.65143      0              4089.2374      45.967502      20.047001      20.857         19219.946      6908.7222      2957.23        2401.76        1969.2882      886.15596      555.79442    
  26583000   265.3642      -353.41148     -275.65108     -353.30173      0              4221.3046      45.628474      20.047001      20.857         19078.191      5315.8586      2989.4203      4358.635      -126.34388     -74.923773     -503.23856    
  26583500   262.40273     -355.27432     -278.38173     -355.1907       0              5350.3317      45.715319      20.047001      20.857         19114.503      6363.877       4543.2885      5143.8297     -1170.5916     -970.88405     -454.41309    
  26584000   252.8301      -355.44974     -281.36224     -355.36936      0              6161.3656      45.830141      20.047001      20.857         19162.512      5589.4978      7397.9073      5496.6919      899.27845     -2133.513       440.32097    
  26584500   264.95206     -355.73972     -278.10009     -355.62619      0              6018.4184      45.838691      20.047001      20.857         19166.087      7786.9068      4175.9378      6092.4107      300.34681      746.74911      1101.4427    
  26585000   253.76862     -356.54662     -282.1841      -356.43324      0              6145.8659      45.890465      20.047001      20.857         19187.735      7417.1655      5729.8869      5290.5454      1090.678      -510.10717     -1143.0407    
  26585500   254.53288     -355.11441     -280.52794     -355.03129      0              6541.7041      45.826309      20.047001      20.857         19160.91       8857.935       4231.2147      6535.9625      303.99885      1317.5988      230.5095     
  26586000   267.22659     -357.44677     -279.14063     -357.36415      0              4803.0346      45.587443      20.047001      20.857         19061.035      8079.4005      3966.6656      2363.0376      25.558605      25.565451     -366.04697    
  26586500   262.63444     -354.56439     -277.6039      -354.49818      0              6278.8831      45.654967      20.047001      20.857         19089.268      5379.1461      7109.014       6348.4892      1835.8156      6.3954242     -171.52466    
  26587000   259.31925     -354.81627     -278.82724     -354.72875      0              5094.6104      45.940552      20.047001      20.857         19208.677      5299.1665      5209.3214      4775.3433     -82.916931     -226.32124      1248.9795    
  26587500   252.93799     -352.21714     -278.09802     -352.15129      0              3881.2262      45.911387      20.047001      20.857         19196.483      3310.5813      3509.8195      4823.2778      825.28612     -330.66568      96.70884     
  26588000   258.57674     -354.46718     -278.69573     -354.3717       0              4057.5506      45.917621      20.047001      20.857         19199.089      3890.7239      5414.5251      2867.4027      219.1427       1485.7744      1887.5965    
  26588500   257.48273     -352.79623     -277.34535     -352.71143      0              5006.8233      46.154001      20.047001      20.857         19297.925      3757.6154      4496.9066      6765.9478     -1006.5546     -165.33065     -1726.9921    
  26589000   267.99196     -356.88877     -278.35835     -356.77797      0              5082.1171      45.92423       20.047001      20.857         19201.853      5261.3463      6593.4542      3391.5508      741.9621       1022.65       -1091.9011    
  26589500   265.72373     -354.92539     -277.05964     -354.81455      0              5554.9083      45.59281       20.047001      20.857         19063.28       8351.6879      4825.4161      3487.6208      250.39995      674.76551      1998.9878    
  26590000   266.93968     -355.02234     -276.80027     -354.92799      0              5235.4121      45.656141      20.047001      20.857         19089.759      6176.2369      3855.126       5674.8734     -20.183143     -435.9561      -593.47951    
  26590500   258.43261     -353.18647     -277.45725     -353.08655      0              3887.3953      45.81038       20.047001      20.857         19154.25       4505.5364      2324.7509      4831.8987      296.55391      641.54161      1429.3129    
  26591000   265.88369     -353.26068     -275.34806     -353.15587      0              3835.5781      45.769343      20.047001      20.857         19137.092      7176.9313      2702.2649      1627.5381     -753.01656      539.05126      2148.5191    
  26591500   261.7371      -355.44921     -278.75167     -355.34097      0              4827.8329      45.897908      20.047001      20.857         19190.847      4685.1422      6664.0018      3134.3548     -461.47434      297.27337      1271.6276    
  26592000   255.55726     -353.95255     -279.0659      -353.84791      0              4636.1699      45.635351      20.047001      20.857         19081.066      5840.6621      3298.1185      4769.7291      1414.0974      2367.1142     -29.748084    
  26592500   262.05355     -352.71433     -275.92406     -352.61756      0              7201.2303      45.298884      20.047001      20.857         18940.383      6307.8132      7273.1919      8022.6858      502.07806     -358.83832     -2785.6331    
  26593000   256.7608      -351.41958     -276.18025     -351.33099      0              4470.9749      45.515341      20.047001      20.857         19030.888      6786.9049      3636.0408      2989.979      -214.12924     -980.21257      117.59924    
  26593500   259.10737     -352.65487     -276.72792     -352.54904      0              4472.8145      45.892317      20.047001      20.857         19188.509      3172.8521      5008.9089      5236.6824     -226.30508     -1965.1359      1329.4861    
  26594000   260.75533     -354.38856     -277.97871     -354.27523      0              4543.7759      46.044313      20.047001      20.857         19252.062      7059.5184      2892.1947      3679.6145      246.62056      911.33102     -514.41897    
  26594500   259.31779     -353.87245     -277.88385     -353.77982      0              4202.66        45.533017      20.047001      20.857         19038.279      5587.979       3051.7907      3968.2103     -78.293187     -1434.8837      2284.8096    
  26595000   259.99393     -353.96797     -277.78123     -353.87152      0              6048.5831      45.286671      20.047001      20.857         18935.276      7030.6869      5008.5775      6106.4848      730.05649      890.64929      2814.3271    
  26595500   259.31751     -352.11169     -276.12316     -352.02974      0              5797.4983      45.857082      20.047001      20.857         19173.777      7031.1752      4569.7893      5791.5303     -130.53592      2113.171       61.978459    
  26596000   265.08897     -350.52005     -272.8403      -350.44948      0              6304.2603      45.922188      20.047001      20.857         19200.999      4722.6766      7753.5139      6436.5902     -566.08551      2021.0049      95.599605    
  26596500   265.79814     -351.70398     -273.81642     -351.59486      0              5350.9578      45.698425      20.047001      20.857         19107.439      4945.1277      6677.2142      4430.5316      95.7435        1546.2789     -267.44554    
  26597000   264.28929     -351.93828     -274.49286     -351.83734      0              4419.2015      45.40413       20.047001      20.857         18984.388      4608.078       6409.3382      2240.1884      739.70907      955.38623      1939.685     
  26597500   256.04252     -354.00672     -278.97788     -353.89371      0              7127.088       45.532501      20.047001      20.857         19038.063      6396.8555      7246.8597      7737.5489      1802.734       925.09052      2361.8393    
  26598000   268.57123     -353.41586     -274.71569     -353.35213      0              5302.332       45.681131      20.047001      20.857         19100.208      6550.6542      3448.8527      5907.4891     -829.26762      932.88131      298.08568    
  26598500   265.28745     -354.18653     -276.44862     -354.07318      0              4094.5376      45.789952      20.047001      20.857         19145.709      6441.1523      1868.8236      3973.637      -1189.5937     -726.40838     -55.765363    
  26599000   256.91137     -354.11876     -278.83532     -354.00767      0              4238.507       45.817247      20.047001      20.857         19157.121      5081.3372      4805.8114      2828.3725      383.81061      1562.3072     -65.646388    
  26599500   263.2555      -354.8978      -277.75532     -354.78577      0              3620.9029      45.732219      20.047001      20.857         19121.569      6949.7873      1997.9469      1914.9745     -649.19675      1978.3946      1035.0502    
  26600000   260.57851     -351.55111     -275.19308     -351.4823       0              5874.9031      45.528712      20.047001      20.857         19036.479      8130.0174      5647.5844      3847.1075      369.37181     -756.15973     -271.52446    
  26600500   260.25332     -355.02427     -278.76152     -354.92284      0              4076.9941      45.531776      20.047001      20.857         19037.76       6462.2811      2239.5267      3529.1745     -1212.79        1139.1005      712.76558    
  26601000   255.01491     -355.08963     -280.36191     -354.99508      0              4892.6721      45.45829       20.047001      20.857         19007.034      5197.4711      4899.7865      4580.7585     -873.89928      518.20919      1677.0106    
  26601500   259.57989     -352.7649      -276.69949     -352.65588      0              4654.8703      45.477365      20.047001      20.857         19015.009      6584.7325      1997.2513      5382.6271     -814.06026      232.96177     -913.70993    
  26602000   259.02302     -355.67663     -279.77441     -355.57129      0              3641.3518      45.802131      20.047001      20.857         19150.801      3804.0788      4931.0409      2188.9356      255.04781      614.83858      9.223652     
  26602500   261.24486     -354.44437     -277.89107     -354.33752      0              6438.946       45.65851       20.047001      20.857         19090.75       6562.2516      6245.6903      6508.8961     -94.072721      1730.4452      861.51995    
  26603000   262.09332     -353.28297     -276.48105     -353.17415      0              6563.3673      45.365017      20.047001      20.857         18968.035      5459.3363      7010.7785      7219.9872     -138.00355      1331.3188      487.39579    
  26603500   257.06672     -352.63572     -277.30675     -352.53436      0              6720.7679      45.500584      20.047001      20.857         19024.718      8157.0825      5402.1339      6603.0875     -812.58991     -2442.2355     -1044.836     
  26604000   249.48152     -353.64694     -280.54068     -353.55429      0              4227.9299      46.031492      20.047001      20.857         19246.701      2811.3429      5929.7854      3942.6614      269.53663     -406.46011      1157.4907    
  26604500   260.97691     -354.33816     -277.86338     -354.24727      0              3821.729       45.92821       20.047001      20.857         19203.517      5843.9573      1021.8531      4599.3765     -412.26678     -187.31867      1194.2404    
  26605000   258.2768      -353.83599     -278.15243     -353.73371      0              6060.4087      45.450382      20.047001      20.857         19003.727      7231.3325      6548.4496      4401.4441     -169.24091      79.162578      1050.2305    
  26605500   258.5228      -352.65516     -276.89951     -352.54481      0              4123.008       45.470979      20.047001      20.857         19012.339      3278.0904      4034.8548      5056.0789      1285.5819      126.30599      537.98735    
  26606000   261.65976     -353.77831     -277.10343     -353.6956       0              8237.4575      45.644266      20.047001      20.857         19084.794      8911.7453      7576.7893      8223.8379     -1605.5661      1360.5237      1712.3461    
  26606500   253.07678     -355.59051     -281.43073     -355.47788      0              5807.094       45.489793      20.047001      20.857         19020.206      7356.2449      3939.4983      6125.5389      1228.9397     -1451.7012     -682.88604    
  26607000   261.21944     -352.80816     -276.26231     -352.71127      0              3768.8258      45.572816      20.047001      20.857         19054.919      5743.347       2543.8129      3019.3174     -920.16042     -416.32989      854.44273    
  26607500   259.08948     -355.55787     -279.63617     -355.44615      0              4674.5014      45.605705      20.047001      20.857         19068.671      5106.083       4825.1829      4092.2384      748.02657     -849.55539      2951.4133    
  26608000   256.97903     -355.30844     -280.00517     -355.22207      0              4532.7409      45.495397      20.047001      20.857         19022.549      5483.6461      4136.1385      3978.4382     -694.05315     -959.42412      1357.1249    
  26608500   263.10611     -354.48118     -277.38247     -354.39511      0              6282.9389      45.285059      20.047001      20.857         18934.602      6776.2871      4731.4459      7341.0838      2010.8465      298.51865      254.52124    
  26609000   254.5423      -353.78047     -279.19124     -353.68444      0              5668.0105      45.253798      20.047001      20.857         18921.532      5316.3888      5152.3174      6535.3254     -800.95215      2883.3854      1661.5848    
  26609500   262.18334     -353.57741     -276.74911     -353.46631      0              3856.4531      45.273821      20.047001      20.857         18929.904      3389.4592      3762.0122      4417.8878     -731.35405     -1113.864      -1332.3331    
  26610000   263.31001     -353.34278     -276.18432     -353.23771      0              3596.2525      45.587045      20.047001      20.857         19060.869      4951.7283      2719.0793      3117.9498      1403.258       266.43378      479.55014    
  26610500   266.04695     -354.58278     -276.62231     -354.47663      0              5706.2649      45.537597      20.047001      20.857         19040.194      7134.0316      4927.2538      5057.5094      541.77361     -899.12249      1448.6493    
  26611000   259.6896      -355.09282     -278.99527     -354.9981       0              5159.2583      45.390334      20.047001      20.857         18978.62       7400.0105      4334.9627      3742.8018     -703.98028      1666.0574      1123.0492    
  26611500   265.16452     -355.37814     -277.67625     -355.26505      0              4843.6831      45.76013       20.047001      20.857         19133.239      5842.7381      3948.2827      4740.0285      842.00781      345.46792     -531.24464    
  26612000   255.68572     -352.6368      -277.71251     -352.52467      0              4182.689       46.101622      20.047001      20.857         19276.024      8749.6554      58.968443      3739.4432      1762.4898     -1165.7972      88.93123     
  26612500   256.19044     -353.91233     -278.84014     -353.80083      0              5142.1694      45.998821      20.047001      20.857         19233.041      4506.79        6274.2656      4645.4525      95.866368      1004.6112     -2468.9406    
  26613000   266.59554     -354.91812     -276.7969      -354.80943      0              6947.3732      45.63616       20.047001      20.857         19081.405      7244.9361      6228.6316      7368.5519     -973.0485       947.41527     -1660.1169    
  26613500   257.27195     -354.23888     -278.84977     -354.14814      0              6516.0819      45.814796      20.047001      20.857         19156.096      5717.577       8491.594       5339.0748     -236.32893     -371.34952      1105.9147    
  26614000   261.05582     -354.50525     -278.00735     -354.39813      0              6684.0869      45.773163      20.047001      20.857         19138.688      7483.2268      5788.7786      6780.2553      1024.7338     -1314.474      -518.72607    
  26614500   257.35831     -353.63479     -278.22038     -353.5392       0              6378.9083      45.62265       20.047001      20.857         19075.756      7085.9696      7655.5127      4395.2424      205.1693       0.28052793     849.29697    
  26615000   265.12759     -352.31733     -274.62626     -352.2043       0              4514.884       45.330458      20.047001      20.857         18953.585      6073.9606      2687.6748      4783.0167      689.2729       217.85918      547.63845    
  26615500   262.79979     -354.71944     -277.71049     -354.61254      0              4945.5535      45.517674      20.047001      20.857         19031.864      5320.9539      4624.8934      4890.8133      199.78441      76.583541      676.012      
  26616000   260.66356     -355.67001     -279.28705     -355.56159      0              6069.8616      45.726741      20.047001      20.857         19119.279      4288.7204      9107.7293      4813.135       1238.3107      1066.0054     -354.86539    
  26616500   253.31923     -351.63268     -277.40185     -351.53745      0              5555.093       45.630515      20.047001      20.857         19079.045      6961.6905      3262.4753      6441.1132     -11.43293       1995.9981     -1626.1908    
  26617000   257.12388     -356.11299     -280.76727     -356.00701      0              6380.4519      45.37419       20.047001      20.857         18971.87       8844.7769      6484.2648      3812.3139     -1258.4794      1039.4347      608.61777    
  26617500   255.35419     -355.30365     -280.47651     -355.19663      0              6870.6831      45.307664      20.047001      20.857         18944.054      9034.8187      3906.4659      7670.7646     -485.06419      106.96156     -1769.0994    
  26618000   254.40206     -354.44505     -279.89691     -354.33652      0              4242.2111      45.675522      20.047001      20.857         19097.863      3419.1015      4705.4969      4602.0349     -275.46327      1577.2286      676.56961    
  26618500   255.33298     -355.68789     -280.86697     -355.58153      0              5286.8646      45.557661      20.047001      20.857         19048.583      5436.5211      4887.6897      5536.3829     -608.94052      11.417912     -339.16474    
  26619000   261.77679     -355.6086      -278.89942     -355.50139      0              5753.7921      45.489047      20.047001      20.857         19019.894      5135.0357      6575.0416      5551.2991      1426.8416      549.81136      1353.597     
  26619500   262.90294     -356.4662      -279.42704     -356.35403      0              6396.4234      45.616509      20.047001      20.857         19073.189      8445.4877      5866.7415      4877.041      -836.91656      1491.7071     -1197.251     
  26620000   266.60778     -356.14101     -278.0162      -356.04185      0              4737.2438      45.59984       20.047001      20.857         19066.219      5474.0544      4703.8937      4033.7833     -877.62745     -259.34284     -724.86356    
  26620500   265.93226     -355.25167     -277.32481     -355.14784      0              2907.4604      45.44746       20.047001      20.857         19002.506      4415.9243      2684.5137      1621.9431      1994.1109     -666.711       -1813.4994    
  26621000   260.79341     -352.0807      -275.65969     -351.98493      0              4824.9913      45.20306       20.047001      20.857         18900.317      4540.9812      4092.9677      5841.0249      995.88579      1162.7371     -1567.7998    
  26621500   264.89636     -354.00212     -276.37881     -353.89809      0              5445.9126      45.218129      20.047001      20.857         18906.618      6719.1803      4797.9351      4820.6223     -850.09997      1213.4216     -2681.7787    
  26622000   254.63476     -358.03494     -283.41862     -357.92459      0              2801.4868      45.757731      20.047001      20.857         19132.236      3271.4255      1225.7746      3907.2604      1486.0418      382.60936      2938.326     
  26622500   265.5576      -358.32946     -280.51239     -358.22766      0              5277.0218      45.701906      20.047001      20.857         19108.895      2951.7902      7125.4488      5753.8264      531.01601      900.60028      145.92641    
  26623000   265.07921     -353.76731     -276.09042     -353.65703      0              7673.8763      45.343394      20.047001      20.857         18958.994      7824.6544      6854.2208      8342.7536     -302.59883      485.23495      1592.452     
  26623500   258.96522     -354.11405     -278.22876     -354.01573      0              5556.5131      45.286439      20.047001      20.857         18935.179      7924.972       3470.3725      5274.1949     -605.19216     -1512.5597     -72.484371    
  26624000   264.84234     -353.8938      -276.28632     -353.78853      0              6638.468       45.555583      20.047001      20.857         19047.714      7013.6955      6745.6694      6156.0391     -1948.9965     -958.84819     -2368.7238    
  26624500   261.84478     -358.27935     -281.55026     -358.16964      0              3345.2075      45.638718      20.047001      20.857         19082.474      4067.5284      2255.1514      3712.9427      717.1796       587.63148      481.63984    
  26625000   265.05642     -354.26121     -276.591       -354.14789      0              8154.8647      45.202564      20.047001      20.857         18900.11       8047.7393      8415.6164      8001.2385     -384.67209     -2020.8558      364.5813     
  26625500   262.20057     -352.46436     -275.631       -352.35414      0              4461.9265      45.239396      20.047001      20.857         18915.51       5029.6155      2661.9521      5694.2119     -319.88736     -1767.5378      96.3014      
  26626000   266.40969     -354.37895     -276.31218     -354.27164      0              8150.3041      45.486433      20.047001      20.857         19018.801      10409.795      8586.9249      5454.193      -36.777726     -189.43785      1043.8338    
  26626500   253.75451     -354.67216     -280.31378     -354.56454      0              4767.7585      45.746083      20.047001      20.857         19127.366      4282.3659      5460.5179      4560.3916      1529.8746     -910.63715     -21.905282    
  26627000   259.54871     -353.7526      -277.69632     -353.64693      0              6343.1557      45.432556      20.047001      20.857         18996.274      6054.8223      7482.5909      5492.0538     -674.22516      378.87366     -424.20716    
  26627500   256.76229     -355.79632     -280.55656     -355.6926       0              6365.6573      45.184199      20.047001      20.857         18892.431      6244.8386      5709.6483      7142.4852      75.235007     -20.074697      1159.5116    
  26628000   261.43192     -357.71473     -281.10661     -357.60617      0              4048.8332      45.787366      20.047001      20.857         19144.627      4543.496       2204.6065      5398.3971      92.750763      1980.7864      256.33288    
  26628500   260.12589     -357.44933     -281.22392     -357.33589      0              5096.8165      45.853766      20.047001      20.857         19172.39       7031.0557      4557.4949      3701.8987     -591.21892     -668.50726     -475.72281    
  26629000   257.95756     -354.85661     -279.2666      -354.74652      0              3371.5749      45.510581      20.047001      20.857         19028.898      4667.1677      2839.3854      2608.1715      290.19807     -327.87917      580.83196    
  26629500   258.34414     -354.04756     -278.34426     -353.93643      0              6968.2963      45.420278      20.047001      20.857         18991.14       8428.5219      6386.0871      6090.2799     -646.38834      216.76246      1939.4748    
  26630000   265.20532     -355.43336     -277.71952     -355.32919      0              7170.3875      45.52664       20.047001      20.857         19035.612      6256.1733      10245.944      5009.0449      118.16496      298.67403     -83.430888    
  26630500   258.03979     -354.36939     -278.75528     -354.28091      0              5210.3303      45.496106      20.047001      20.857         19022.845      5529.3728      6459.9398      3641.6782      878.47462      58.50917       412.89486    
  26631000   260.89066     -353.83987     -277.39037     -353.75373      0              4309.7285      45.434135      20.047001      20.857         18996.934      4944.5039      3790.0367      4194.6451     -759.55316      2992.5412     -1131.2772    
  26631500   262.92508     -354.12302     -277.07736     -354.0245       0              4653.2208      45.560007      20.047001      20.857         19049.564      6805.7099      2700.4702      4453.4823      144.27253     -680.54991      342.75483    
  26632000   258.55106     -356.02867     -280.26474     -355.91532      0              3081.8108      45.589783      20.047001      20.857         19062.014      6057.7319      2677.5717      510.12871      919.47089     -124.54956      263.4653     
  26632500   265.55723     -354.96258     -277.14561     -354.86558      0              6965.4801      45.274753      20.047001      20.857         18930.293      8501.8363      5799.2783      6595.3256     -1716.9679      646.45558     -636.1189     
  26633000   257.38947     -354.26693     -278.84339     -354.17849      0              4713.5516      45.095009      20.047001      20.857         18855.139      5623.1353      4649.7825      3867.737      -535.76584     -19.630583     -227.94531    
  26633500   256.1422      -354.19907     -279.14102     -354.08878      0              6343.6586      45.311429      20.047001      20.857         18945.628      6010.3407      5785.2959      7235.3392     -1251.8682      1226.588      -129.57477    
  26634000   259.05411     -352.01761     -276.10628     -351.90423      0              6117.3239      45.705917      20.047001      20.857         19110.572      6105.0899      7061.4555      5185.4265      264.61724     -889.8293       1654.0644    
  26634500   255.36606     -350.68688     -275.85627     -350.57393      0              6676.121       45.642006      20.047001      20.857         19083.849      6372.6743      7679.0863      5976.6023     -428.57399      1120.1704     -973.59386    
  26635000   256.15147     -350.29609     -275.23531     -350.18659      0              7722.1773      45.388963      20.047001      20.857         18978.047      8748.2827      6531.7601      7886.489       1432.7258      1589.2778      905.499      
  26635500   263.40805     -354.61006     -277.42287     -354.51367      0              5828.5571      45.400379      20.047001      20.857         18982.82       6669.1874      5742.0658      5074.4182      870.35628      304.00607     -356.55987    
  26636000   254.36172     -352.20829     -277.67198     -352.1124       0              7025.3095      45.489823      20.047001      20.857         19020.218      6932.8099      7765.755       6377.3635      1008.9764      815.98313      401.68554    
  26636500   253.60022     -353.6355      -279.32233     -353.52438      0              5835.1533      45.493338      20.047001      20.857         19021.688      4425.715       8501.1319      4578.6131     -1902.8005     -310.51098     -516.85583    
  26637000   262.96476     -354.09907     -277.04178     -353.98579      0              5266.959       45.655055      20.047001      20.857         19089.305      4541.7928      6942.853       4316.2313     -145.42724     -226.11372      1410.0998    
  26637500   255.60469     -352.12845     -277.22791     -352.03748      0              3492.0555      45.74366       20.047001      20.857         19126.353      2411.3761      4924.6825      3140.1079      241.48644     -292.01607     -1013.0867    
  26638000   260.9342      -355.56433     -279.10206     -355.45175      0              6773.9915      45.517738      20.047001      20.857         19031.89       7459.6272      6741.4261      6120.9211     -240.11497     -175.1451       235.10258    
  26638500   262.41184     -355.55679     -278.66152     -355.4607       0              4121.7841      45.21073       20.047001      20.857         18903.524      5094.0335      3783.1918      3488.1271     -54.43596       1014.7492      145.48067    
  26639000   259.47664     -353.90613     -277.87098     -353.80241      0              4914.3828      45.56287       20.047001      20.857         19050.761      7126.6053      4454.4817      3162.0614      565.33274     -753.59257     -234.49668    
  26639500   265.42925     -351.13227     -273.3528      -351.04409      0              5425.6127      45.698886      20.047001      20.857         19107.632      7111.1235      3181.4731      5984.2415      1572.656      -1077.946      -1349.5112    
  26640000   251.6713      -354.80343     -281.0555      -354.69073      0              2728.0367      45.329104      20.047001      20.857         18953.019      4140.6947      2985.5571      1057.8583     -306.51217     -102.90081      798.22021    
  26640500   257.05124     -353.76192     -278.43749     -353.65299      0              6870.9457      45.232601      20.047001      20.857         18912.669      8471.0449      7200.7971      4940.9951      1818.9499      2112.5433     -576.6934     
  26641000   254.20154     -356.41459     -281.92522     -356.32104      0              6530.875       45.636565      20.047001      20.857         19081.574      7097.9873      6859.292       5635.3457      119.60208     -1088.5323      1322.3298    
  26641500   259.17835     -353.44007     -277.49232     -353.3327       0              4911.8064      45.652773      20.047001      20.857         19088.351      6016.2413      2823.3306      5895.8474     -706.44964      671.3411       1070.542     
  26642000   265.15864     -353.54744     -275.84728     -353.44547      0              4838.4487      45.205231      20.047001      20.857         18901.225      7473.7955      4603.2214      2438.3293      1765.8223      214.79286     -733.667      
  26642500   262.40393     -354.62444     -277.7315      -354.51791      0              6769.9029      45.129287      20.047001      20.857         18869.471      6900.0325      7686.1599      5723.5164      319.98445     -901.97354      329.65692    
  26643000   261.58759     -355.50791     -278.85418     -355.41574      0              4205.7173      45.412289      20.047001      20.857         18987.8        5847.2698      3274.4514      3495.4307      209.80297      1496.7243     -1757.2964    
  26643500   261.87431     -356.42211     -279.68437     -356.32311      0              5785.3408      45.50119       20.047001      20.857         19024.971      7340.3317      6049.3998      3966.291       765.08941      266.67782     -1849.8029    
  26644000   258.88169     -355.77382     -279.91301     -355.67971      0              3565.634       45.443365      20.047001      20.857         19000.793      6268.5193      2703.1345      1725.2482      618.13893      1759.8719      1479.9466    
  26644500   259.58147     -353.13849     -277.07262     -353.02529      0              6200.1136      45.192538      20.047001      20.857         18895.917      9276.3856      5729.6514      3594.304       634.06598     -322.5257      -17.758754    
  26645000   256.17171     -353.94536     -278.87866     -353.84911      0              3321.2974      45.371222      20.047001      20.857         18970.629      1964.8975      5282.5026      2716.4922      94.656326      473.14862     -1403.1271    
  26645500   256.28295     -354.00893     -278.90963     -353.89604      0              3463.1103      45.437502      20.047001      20.857         18998.342      2971.4426      4367.0997      3050.7887      492.37346      119.14503     -67.026472    
  26646000   262.03411     -354.68234     -277.89777     -354.59304      0              5931.0147      45.345804      20.047001      20.857         18960.001      6141.8082      7347.3656      4303.8702     -918.77718     -809.27448      1199.7762    
  26646500   252.16646     -354.11572     -280.22269     -354.00533      0              6595.8354      45.317879      20.047001      20.857         18948.325      7551.0846      6921.0773      5315.3444      818.06043      985.78577     -679.20314    
  26647000   256.36341     -353.27294     -278.15006     -353.16191      0              6523.9745      45.456633      20.047001      20.857         19006.341      6354.6082      6012.141       7205.1743     -284.45843     -785.60468      2323.563     
  26647500   256.32555     -353.43515     -278.32337     -353.33912      0              5886.1032      45.692917      20.047001      20.857         19105.136      3641.3347      5892.0958      8124.8791      141.13024      210.94775     -546.90113    
  26648000   269.53963     -354.70003     -275.7161      -354.58695      0              6065.321       45.43637       20.047001      20.857         18997.869      3419.6136      6376.9933      8399.3562     -1237.9701     -767.75622      170.10784    
  26648500   260.77832     -354.16477     -277.74818     -354.07095      0              5454.2746      45.09229       20.047001      20.857         18854.002      6946.5888      4914.7156      4501.5195     -274.28265     -1000.6908     -1098.1406    
  26649000   263.22484     -353.04907     -275.91557     -352.93726      0              4150.4871      45.167895      20.047001      20.857         18885.614      2979.3919      4467.8322      5004.2373     -991.77273     -909.95352     -952.26682    
  26649500   262.50897     -352.81857     -275.89485     -352.74672      0              4112.7729      45.642052      20.047001      20.857         19083.869      6209.4638      4421.6538      1707.2011      1040.8878      153.2128       849.69957    
  26650000   259.72047     -354.48622     -278.37961     -354.37825      0              4266.356       45.487898      20.047001      20.857         19019.413      4931.1146      5005.1488      2862.8045     -888.84426      540.09433     -397.27499    
  26650500   262.55873     -352.78581     -275.8475      -352.67372      0              3978.6475      45.239342      20.047001      20.857         18915.487      5273.7349      3142.3146      3519.893      -1888.236      -636.94885     -119.39716    
  26651000   260.42043     -352.42525     -276.11354     -352.31524      0              5207.6513      45.457504      20.047001      20.857         19006.705      4430.8568      5186.4437      6005.6533      404.39143     -484.2647      -47.282038    
  26651500   261.14889     -352.09264     -275.56746     -352.00598      0              4745.1297      45.731934      20.047001      20.857         19121.45       5260.0916      4407.7937      4567.5037     -580.69491     -407.50726      1056.5897    
  26652000   262.72544     -350.41093     -273.42377     -350.32396      0              5170.5917      45.712767      20.047001      20.857         19113.436      5656.5459      2079.2014      7776.0279     -605.05786     -1478.4873      572.55525    
  26652500   258.58614     -351.61701     -275.8428      -351.5088       0              6019.7565      45.410215      20.047001      20.857         18986.933      5983.174       7966.5239      4109.5715      503.75351      47.317163      1718.9297    
  26653000   260.12348     -350.90988     -274.68518     -350.80313      0              3833.5049      45.383126      20.047001      20.857         18975.606      3210.6452      2916.3846      5373.485      -271.52492      879.80674      1342.8113    
  26653500   263.79353     -351.70533     -274.40518     -351.64392      0              6713.2085      45.649418      20.047001      20.857         19086.948      6862.0337      6236.717       7040.8749      854.75667      498.04347     -822.64946    
  26654000   263.35373     -352.26528     -275.09401     -352.2072       0              5477.7228      45.609696      20.047001      20.857         19070.34       5915.7837      5117.7907      5399.594      -2138.3195      351.65624      1028.6299    
  26654500   261.81491     -353.72624     -277.0059      -353.62043      0              5011.8697      45.412944      20.047001      20.857         18988.074      6782.1627      4969.6835      3283.7628      917.83698      445.59017      876.88589    
  26655000   257.12062     -353.83395     -278.48919     -353.76151      0              4463.4962      45.452703      20.047001      20.857         19004.698      6083.1882      4312.8143      2994.4861      765.64467     -705.09861     -126.19934    
  26655500   259.71072     -353.81019     -277.70644     -353.73319      0              6730.4826      45.530544      20.047001      20.857         19037.245      9843.0088      5564.4063      4784.0326      61.70708      -1288.4428      631.15133    
  26656000   259.84242     -353.09046     -276.94812     -352.99136      0              5378.0627      45.536842      20.047001      20.857         19039.878      6904.3063      3694.4569      5535.4249      467.09416     -901.54194     -1413.8615    
  26656500   254.33272     -352.92477     -278.39696     -352.83236      0              7736.4127      45.490588      20.047001      20.857         19020.538      8557.6785      7672.9789      6978.5808     -147.44471     -667.78469      843.30222    
  26657000   264.27819     -352.89887     -275.45671     -352.80491      0              3181.6343      45.576044      20.047001      20.857         19056.269      2065.5476      4216.0601      3263.2953     -158.7126      -260.64527      0.0027470051 
  26657500   269.02869     -353.24155     -274.40733     -353.16192      0              4536.2313      45.680131      20.047001      20.857         19099.79       4719.6346      5936.8722      2952.1871      821.30394     -24.953874     -1061.2991    
  26658000   255.50752     -352.21315     -277.34108     -352.13283      0              6515.6855      45.754849      20.047001      20.857         19131.031      4469.1236      7957.3466      7120.5864      1367.2631     -1724.6804     -324.89026    
  26658500   252.60333     -353.88128     -279.86023     -353.8017       0              3639.7527      45.646117      20.047001      20.857         19085.568      5003.4296      3390.2467      2525.5819     -494.26362      183.20429      188.63885    
  26659000   253.64807     -351.2921      -276.96491     -351.19428      0              6889.6035      45.273808      20.047001      20.857         18929.898      10448.373      5056.5695      5163.8683     -286.69597     -587.6353      -377.92971    
  26659500   255.65454     -353.45432     -278.53917     -353.35956      0              4178.2057      45.366038      20.047001      20.857         18968.461      6731.6233      2645.4448      3157.5489     -183.49033     -18.189989      660.33682    
  26660000   260.55247     -352.5277      -276.17729     -352.46993      0              3738.4471      45.689155      20.047001      20.857         19103.563      1892.3877      3532.8552      5790.0984      1279.7038      55.307687     -344.671      
  26660500   267.54153     -356.08294     -277.68451     -355.99764      0              4735.8754      45.767347      20.047001      20.857         19136.257      5680.9845      4080.6221      4446.0197     -262.63883      1626.92        1724.2812    
  26661000   262.89371     -350.89996     -273.86349     -350.80627      0              4253.4778      45.700206      20.047001      20.857         19108.184      7159.1349      2908.4751      2692.8235     -828.63982     -33.846419      367.85362    
  26661500   267.82227     -350.63477     -272.15408     -350.53401      0              5702.263       45.651825      20.047001      20.857         19087.955      6349.0149      6185.7491      4572.025      -442.48791      632.72481     -576.69859    
  26662000   266.35254     -351.09435     -273.04434     -351.01217      0              3395.2715      45.93853       20.047001      20.857         19207.832      4754.7563      3882.1674      1548.8907      1047.333       34.671873     -599.55337    
  26662500   257.88715     -348.79789     -273.2285      -348.74255      0              7079.1227      45.888308      20.047001      20.857         19186.833      9297.0501      4741.0023      7199.3155      49.77666      -2037.2098      406.19411    
  26663000   257.71537     -350.66985     -275.15081     -350.60367      0              4865.293       45.573427      20.047001      20.857         19055.175      5635.7558      5283.164       3676.9591      397.08839     -1445.6728      805.83327    
  26663500   266.92967     -353.37189     -275.15275     -353.30887      0              3930.379       45.51513       20.047001      20.857         19030.8        6332.0077      2152.9755      3306.1537     -295.58149     -75.859289     -632.36532    
  26664000   267.78224     -350.61286     -272.1439      -350.52467      0              4684.8998      45.883756      20.047001      20.857         19184.93       5207.738       4590.3058      4256.6557     -2000.3974     -819.55582      227.63579    
  26664500   268.40296     -351.7169      -273.06604     -351.62521      0              6603.2705      45.827435      20.047001      20.857         19161.381      9648.3476      6243.387       3918.0769      173.11984      793.99618     -2315.4502    
  26665000   267.99387     -352.90588     -274.3749      -352.83264      0              5607.03        45.673182      20.047001      20.857         19096.885      5453.3188      6162.0589      5205.7123      87.757854     -1108.5509      50.453669    
  26665500   255.2412      -352.56668     -277.77265     -352.54809      0              3544.9293      45.846438      20.047001      20.857         19169.327      3018.908       4533.1076      3082.7723      1062.8256      287.85235     -179.30577    
  26666000   261.89299     -351.65381     -274.91059     -351.60064      0              5788.6506      45.943795      20.047001      20.857         19210.033      6772.5799      5532.0649      5061.307       575.83222      365.96159     -142.98417    
  26666500   253.30403     -352.69994     -278.47357     -352.65075      0              3971.1993      45.880359      20.047001      20.857         19183.509      3638.6664      2006.5334      6268.3981     -515.88663      575.81503      325.63051    
  26667000   269.47966     -353.54122     -274.57486     -353.48903      0              6225.5598      45.739695      20.047001      20.857         19124.695      8555.2058      4146.2927      5975.181       27.930527      1471.9948      479.0682     
  26667500   256.03067     -351.89309     -276.86772     -351.81233      0              5631.9214      45.734549      20.047001      20.857         19122.543      5498.9271      6953.084       4443.753       889.6992       2025.4585      318.74989    
  26668000   255.22611     -351.8802      -277.09059     -351.81643      0              5921.2123      45.402689      20.047001      20.857         18983.786      8684.2984      4922.8589      4156.4796     -1569.3703     -125.7933       2027.7979    
  26668500   253.19084     -354.96125     -280.76805     -354.86042      0              3398.9979      45.464984      20.047001      20.857         19009.833      6282.1692      1677.063       2237.7616      263.02763      2269.1405      1052.3638    
  26669000   252.72711     -353.88321     -279.82589     -353.78486      0              3118.5462      45.820502      20.047001      20.857         19158.482      2686.6068      3423.3904      3245.6415      1170.6134      2128.9115      420.56398    
  26669500   264.18426     -349.94476     -272.53012     -349.86736      0              4286.2605      45.763986      20.047001      20.857         19134.852      5324.6743      3343.5072      4190.5998      1490.5736     -630.52503     -1448.941     
  26670000   261.89384     -352.70604     -275.96257     -352.61768      0              5643.1375      45.428573      20.047001      20.857         18994.609      6597.8503      4159.4072      6172.155       1406.1774     -717.18694      2857.9332    
  26670500   259.16448     -351.27389     -275.33021     -351.18038      0              5298.8713      45.519975      20.047001      20.857         19032.825      5609.1996      6815.9704      3471.4441      98.601237     -2315.9161     -1489.3631    
  26671000   257.84861     -352.22831     -276.67023     -352.12945      0              5832.6882      45.709213      20.047001      20.857         19111.95       5581.4121      5986.6135      5930.039       447.98492      883.75321      2995.5469    
  26671500   258.34618     -357.86191     -282.15802     -357.7589       0              4847.7506      45.738165      20.047001      20.857         19124.055      6598.7968      3170.1607      4774.2943     -19.949584      274.71033      1521.4493    
  26672000   250.05585     -352.0017      -278.72715     -351.92267      0              4765.9966      45.549025      20.047001      20.857         19044.972      5360.3989      6341.6924      2595.8984     -360.20131      80.305012      2481.9132    
  26672500   267.77826     -350.88634     -272.41855     -350.79363      0              7531.6826      45.214085      20.047001      20.857         18904.927      8984.0966      4535.4548      9075.4963      36.706874      2316.8102     -476.94307    
  26673000   258.6503      -350.40072     -274.60771     -350.32195      0              6180.2505      45.626416      20.047001      20.857         19077.331      3964.8376      8729.258       5846.6558     -841.20242     -57.9701       -151.13815    
  26673500   260.626       -350.61331     -274.24135     -350.52276      0              5310.5681      45.756536      20.047001      20.857         19131.736      5909.7085      4772.8491      5249.1467     -560.53856      913.64351      834.22071    
  26674000   264.06762     -351.26877     -273.88831     -351.17141      0              4691.6916      45.687957      20.047001      20.857         19103.062      6608.9786      3373.5392      4092.557       1925.4281     -304.35702      514.20228    
  26674500   263.00298     -352.4114      -275.34291     -352.31714      0              5537.8616      45.411542      20.047001      20.857         18987.488      4619.2211      4902.9431      7091.4205     -938.80126      867.27463     -817.64508    
  26675000   262.45992     -352.51223     -275.60288     -352.39992      0              5176.7643      45.496242      20.047001      20.857         19022.902      8564.2622      4086.5971      2879.4334      1565.7148     -800.79403     -1135.9539    
  26675500   257.61879     -353.51187     -278.02113     -353.43171      0              5573.367       45.816063      20.047001      20.857         19156.626      6280.8107      5309.8923      5129.3981     -366.57117      1138.229       882.82512    
  26676000   263.02465     -353.25091     -276.17608     -353.14198      0              5293.4446      45.624103      20.047001      20.857         19076.364      3964.4698      5608.7967      6307.0672      436.59033      612.31496      744.69922    
  26676500   259.36184     -354.26496     -278.26345     -354.15172      0              5721.5002      45.275647      20.047001      20.857         18930.667      5113.4834      8001.9375      4049.0796      607.79477     -133.3967       1345.5716    
  26677000   255.1273      -354.96296     -280.20231     -354.89407      0              5887.6756      45.717524      20.047001      20.857         19115.425      5433.1402      6051.1651      6178.7215     -687.22325     -727.06085      704.46093    
  26677500   254.78595     -354.0036      -279.34297     -353.91688      0              6143.1328      45.819073      20.047001      20.857         19157.884      6240.606       5218.7424      6970.0499      1758.0949      739.29565      1160.7675    
  26678000   254.29597     -352.30339     -277.78634     -352.20763      0              6705.2042      45.510831      20.047001      20.857         19029.002      8745.2013      6853.732       4516.6793     -779.86708      1019.7928     -252.04872    
  26678500   257.7445      -351.02912     -275.50154     -350.91724      0              6873.2884      45.439458      20.047001      20.857         18999.16       6222.536       8686.6978      5710.6315     -266.01909      211.39292     -919.26906    
  26679000   258.05753     -350.34776     -274.72845     -350.23727      0              6358.3223      45.539353      20.047001      20.857         19040.928      6879.3318      6601.6062      5594.0288     -954.90582     -407.01901      1103.1358    
  26679500   263.8665      -350.59403     -273.27251     -350.50881      0              6938.159       45.480305      20.047001      20.857         19016.239      7379.7789      6629.3103      6805.3877     -91.42051      -986.23795     -1038.0169    
  26680000   261.99328     -351.07808     -274.30547     -350.97187      0              6884.5366      45.275292      20.047001      20.857         18930.519      7350.2285      5451.8751      7851.5061      387.8153      -208.28542     -1456.182     
  26680500   261.00351     -352.53761     -276.05503     -352.43305      0              5842.1066      45.582753      20.047001      20.857         19059.075      7026.2801      6922.3107      3577.7292      979.339       -1700.779       478.14431    
  26681000   259.74051     -353.68729     -277.57482     -353.62651      0              6422.4231      45.916751      20.047001      20.857         19198.726      4969.5724      6905.9037      7391.7931      459.91516     -1157.4195     -805.305      
  26681500   261.96252     -350.62722     -273.86362     -350.53896      0              5456.5507      45.858737      20.047001      20.857         19174.469      5550.2145      6502.3496      4317.0879      1187.165      -1468.9925      1050.2991    
  26682000   259.72718     -350.47258     -274.36401     -350.35982      0              7110.095       45.31354       20.047001      20.857         18946.511      9430.9756      4796.4794      7102.8301      206.08261     -716.97001      1070.1707    
  26682500   256.72823     -349.7612      -274.53142     -349.6601       0              5174.1781      45.53453       20.047001      20.857         19038.911      4446.3092      5354.1088      5722.1162     -643.26688     -445.49881      443.54593    
  26683000   260.33605     -352.58655     -276.29956     -352.49309      0              4379.8267      45.992575      20.047001      20.857         19230.429      3610.667       3986.7622      5542.0507      1241.856      -1217.2445     -163.98738    
  26683500   261.28471     -350.61148     -274.0465      -350.53409      0              4997.0663      45.731162      20.047001      20.857         19121.127      4725.2202      5683.9712      4582.0074     -62.638115     -1931.3578      443.22529    
  26684000   261.94108     -350.77683     -274.01951     -350.70336      0              5048.8747      45.537261      20.047001      20.857         19040.053      6299.1157      3793.2669      5054.2414     -1626.2598      314.06985     -2842.1199    
  26684500   265.96992     -353.31413     -275.37623     -353.20097      0              6093.3417      45.843305      20.047001      20.857         19168.017      5327.5503      8455.4413      4497.0337      219.31142     -622.44241      1637.8704    
  26685000   267.0791      -356.75533     -278.49241     -356.64221      0              3420.2999      45.949496      20.047001      20.857         19212.417      4293.4595      3876.4422      2090.9981      477.87549     -126.8273      -352.74271    
  26685500   260.82219     -354.72157     -278.29213     -354.61168      0              9255.9225      45.679091      20.047001      20.857         19099.355      8854.8573      9933.0643      8979.8458      659.54373     -296.1548      -1362.1899    
  26686000   260.0386      -354.19768     -277.99785     -354.09853      0              8038.2634      45.547988      20.047001      20.857         19044.538      9508.4829      7145.5025      7460.8048     -665.08072      1052.0434      907.15202    
  26686500   263.94266     -353.94752     -276.60368     -353.83433      0              4305.3628      45.594291      20.047001      20.857         19063.899      5499.1563      3255.3197      4161.6123     -673.61445      870.72538      1880.9662    
  26687000   256.74859     -352.73578     -277.50003     -352.64493      0              8017.0689      45.542819      20.047001      20.857         19042.377      6955.5302      9654.4417      7441.2348     -728.65124     -783.54024     -627.30528    
  26687500   260.35426     -351.58231     -275.28998     -351.47784      0              4219.7006      45.526453      20.047001      20.857         19035.534      4029.4298      6800.5048      1829.1674     -1226.0219      463.12661      22.220038    
  26688000   256.91604     -354.09479     -278.80997     -353.98164      0              6059.1963      45.752493      20.047001      20.857         19130.046      8435.5011      2811.7987      6930.2889     -542.62283      2432.9021      149.48093    
  26688500   259.65571     -353.60585     -277.51822     -353.49389      0              6346.6088      45.786683      20.047001      20.857         19144.342      7505.1175      5725.6966      5809.0123      552.74199      894.94466      1729.9729    
  26689000   266.20888     -354.05111     -276.04319     -353.94927      0              4792.5127      45.775681      20.047001      20.857         19139.742      5324.2991      4643.6306      4409.6083     -108.50255     -1142.5094      1313.1891    
  26689500   262.64455     -353.29844     -276.33499     -353.1962       0              4492.0299      45.646978      20.047001      20.857         19085.928      6510.7081      2877.9454      4087.4362      87.846217      645.36894      125.63851    
  26690000   260.27545     -354.70414     -278.43491     -354.59138      0              5357.6351      45.797139      20.047001      20.857         19148.713      5522.5788      7033.7743      3516.5524      166.61529      394.76082     -1818.8064    
  26690500   266.81681     -352.4601      -274.27404     -352.41025      0              4548.5837      45.839784      20.047001      20.857         19166.544      6103.9988      1452.0082      6089.7441      725.32757      1892.8909      2260.717     
  26691000   256.95379     -352.22471     -276.92884     -352.14925      0              5363.0685      45.583435      20.047001      20.857         19059.36       6249.4892      4471.5558      5368.1605     -142.64998      565.71886      2827.2816    
  26691500   255.34231     -352.37419     -277.55053     -352.27042      0              5315.6802      45.60849       20.047001      20.857         19069.835      6814.4238      3924.7933      5207.8236     -878.00743     -2636.7674     -190.95762    
  26692000   260.24627     -353.07761     -276.81693     -352.97907      0              5497.9695      45.421059      20.047001      20.857         18991.467      5953.5817      5269.4664      5270.8604      449.58143     -1904.4807      717.97703    
  26692500   262.2421      -353.54342     -276.6979      -353.49159      0              7014.6268      45.756758      20.047001      20.857         19131.829      6280.0579      6415.3085      8348.5139      99.79029      -1403.9853     -303.39653    
  26693000   265.78218     -353.46141     -275.57852     -353.35179      0              5826.6882      45.908923      20.047001      20.857         19195.453      7296.8093      5704.8009      4478.4544      1120.189      -287.31585     -659.13148    
  26693500   257.62314     -352.93538     -277.44336     -352.87503      0              6130.6846      45.560311      20.047001      20.857         19049.691      5460.4599      7450.7692      5480.8248      225.36863     -2363.4901      117.85845    
[...]
  27249500   249.68974     -353.05245     -279.88518     -353.03128      0              5565.5608      45.282098      20.047001      20.857         18933.365      9487.2517      3611.4839      3597.9468      1055.5051      1146.5363      495.76157    
  27250000   255.6798      -352.95427     -278.03171     -352.94158      0              4386.2356      45.640824      20.047001      20.857         19083.355      4125.7377      5015.3337      4017.6354     -512.80844      446.9554       1885.1285    
  27250500   261.99946     -354.36885     -277.59443     -354.32514      0              3711.3018      46.118796      20.047001      20.857         19283.205      6147.548       337.86478      4648.4925      960.46745     -401.35701     -242.84029    
  27251000   260.17448     -353.00965     -276.77001     -352.98322      0              6153.1739      45.889662      20.047001      20.857         19187.399      4666.9496      7462.1657      6330.4063      269.36989     -581.58979     -5.7604449    
  27251500   261.40372     -353.91593     -277.31608     -353.86302      0              5619.179       45.506947      20.047001      20.857         19027.378      7272.4748      4967.0247      4618.0376      214.77076     -287.72661      482.82106    
  27252000   259.79339     -354.81935     -278.69138     -354.77034      0              4868.7927      45.662785      20.047001      20.857         19092.537      6144.542       4617.3505      3844.4856      191.10638      1382.8552     -172.9215     
  27252500   257.50292     -355.6638      -280.20701     -355.60273      0              6399.4204      45.703284      20.047001      20.857         19109.471      9705.0024      4722.8554      4770.4035     -1684.2003     -1147.5245      323.08603    
  27253000   261.55853     -355.10968     -278.46447     -355.08322      0              5195.1887      45.795093      20.047001      20.857         19147.858      5327.1006      4728.8857      5529.5799      346.08983     -131.94843      640.79437    
  27253500   253.55207     -354.03251     -279.73345     -354.02002      0              5419.2961      45.834335      20.047001      20.857         19164.266      6133.2998      4873.9051      5250.6834      212.1563      -1208.9156      1005.8883    
  27254000   264.92486     -353.45571     -275.82405     -353.39214      0              6029.1977      45.661968      20.047001      20.857         19092.196      8542.2548      3944.7541      5600.5841      19.94198      -522.98798      1511.4533    
  27254500   262.599       -350.34658     -273.39647     -350.31942      0              4995.086       45.55943       20.047001      20.857         19049.322      7240.623       1898.1649      5846.47       -2256.829       3390.1087     -643.92027    
  27255000   267.43093     -351.66249     -273.29647     -351.57451      0              5672.4619      45.540694      20.047001      20.857         19041.489      5815.0072      6377.264       4825.1144      378.08587     -1221.2337      189.8109     
  27255500   256.93188     -354.07625     -278.78679     -354.02904      0              3999.5183      45.725675      20.047001      20.857         19118.833      3324.9555      4489.8167      4183.7827     -247.67954      115.86972      948.74333    
  27256000   266.02763     -353.12422     -275.16942     -353.08942      0              5607.1922      45.51528       20.047001      20.857         19030.863      7051.233       4099.8731      5670.4705     -126.51594      984.836        280.32582    
  27256500   260.44074     -353.8767      -277.55903     -353.85689      0              7455.4386      45.584378      20.047001      20.857         19059.754      8509.6238      6662.556       7194.136       82.750011     -706.43512      2212.4549    
  27257000   263.69552     -353.36405     -276.09263     -353.3419       0              4059.0697      45.982027      20.047001      20.857         19226.019      3599.0163      3702.9174      4875.2755      139.31442      1884.0715      830.00546    
  27257500   264.82214     -353.71901     -276.11745     -353.68301      0              6214.3676      45.791981      20.047001      20.857         19146.557      7610.7233      5699.1203      5333.2593     -751.5781       1627.1362      758.25021    
  27258000   256.21456     -354.32249     -279.24324     -354.28606      0              4775.5475      45.453028      20.047001      20.857         19004.834      4965.3198      4459.3588      4901.9638     -852.70139     -1431.0234     -2475.4767    
  27258500   258.71565     -352.01893     -276.20677     -351.98361      0              6376.5586      45.468636      20.047001      20.857         19011.36       6581.4521      6697.1451      5851.0788     -2269.9938      1192.7535      989.26384    
  27259000   263.09961     -353.22872     -276.13192     -353.144        0              3597.3137      45.644569      20.047001      20.857         19084.921      3721.21        1852.5862      5218.1448     -1547.9521      117.36241     -867.09268    
  27259500   260.05283     -354.7951      -278.59111     -354.71303      0              6849.4491      45.832748      20.047001      20.857         19163.602      9572.6038      6093.992       4881.7515      1332.625       403.54086      1650.2854    
  27260000   261.41334     -353.66346     -277.06079     -353.57637      0              6190.7911      45.465807      20.047001      20.857         19010.177      4307.86        6576.593       7687.9204      1170.348      -2650.903       730.0369     
  27260500   271.73588     -354.26796     -274.64045     -354.21399      0              5353.5811      45.20531       20.047001      20.857         18901.258      6034.606       4850.515       5175.6224      49.336521     -931.17028     -1876.2561    
  27261000   259.33452     -353.33893     -277.34542     -353.27593      0              4801.7586      45.550587      20.047001      20.857         19045.625      3823.1885      7149.1788      3432.9086      495.23805     -189.3661       517.03164    
  27261500   257.72467     -351.9859      -276.46413     -351.92836      0              5584.5844      45.882517      20.047001      20.857         19184.412      5312.0607      6957.2117      4484.4807      900.99921      106.17215     -1509.4033    
  27262000   259.0239      -354.80354     -278.90105     -354.74395      0              7578.4974      45.536712      20.047001      20.857         19039.824      9256.3031      7760.6639      5718.525       1196.0587      900.96093     -251.68093    
  27262500   257.86828     -352.89864     -277.33479     -352.80827      0              6014.044       45.449308      20.047001      20.857         19003.278      8186.5498      6201.2592      3654.3231     -374.29938     -240.81028      688.93246    
  27263000   267.61041     -355.20728     -276.78866     -355.1474       0              8507.1957      45.600699      20.047001      20.857         19066.578      9336.3586      6817.9407      9367.288       180.84081     -2159.1892     -942.01684    
  27263500   255.79035     -351.51397     -276.55902     -351.47243      0              5233.0325      45.711634      20.047001      20.857         19112.962      5669.8937      5725.3146      4303.8891     -271.45754     -1329.355      -433.91947    
  27264000   266.20595     -356.7745      -278.76744     -356.71959      0              5762.9854      45.445515      20.047001      20.857         19001.692      3901.4593      7193.9642      6193.5327     -236.24762      229.75295      992.98835    
  27264500   258.07374     -354.4673      -278.84324     -354.39744      0              6705.1691      45.382723      20.047001      20.857         18975.438      8907.7289      4746.3469      6461.4317     -198.4997      -1623.1044      483.31057    
  27265000   250.57235     -355.09098     -281.66507     -355.00962      0              3258.6167      45.740307      20.047001      20.857         19124.951      3892.1088      3569.072       2314.6693     -392.28659     -326.13216     -76.276263    
  27265500   262.18188     -353.96386     -277.13599     -353.93582      0              8225.3496      45.995807      20.047001      20.857         19231.78       9030.5526      8374.7762      7270.72        55.13148      -354.74917     -236.67744    
  27266000   260.02809     -354.74538     -278.54863     -354.71293      0              5265.5251      45.630211      20.047001      20.857         19078.917      8411.2237      3028.7855      4356.566      -188.26299      620.71263     -355.63091    
  27266500   261.20873     -353.4787      -276.93598     -353.45416      0              6739.5887      45.631675      20.047001      20.857         19079.53       8354.2774      4647.8989      7216.5896      1543.8037     -2443.0945      882.38142    
  27267000   258.84354     -356.0521      -280.20247     -356.00957      0              3319.5629      46.095486      20.047001      20.857         19273.458      3905.8339      2604.6005      3448.2544     -547.54045     -1193.3515      618.96027    
  27267500   258.13918     -355.53927     -279.89603     -355.48011      0              3197.6138      46.07898       20.047001      20.857         19266.557      915.18666      5837.1653      2840.4896      628.42472      531.21692     -1421.2306    
  27268000   259.51997     -351.7308      -275.68295     -351.69222      0              6034.2581      45.560628      20.047001      20.857         19049.824      8462.7339      4192.1021      5447.9383      780.21063     -775.1168       872.64257    
  27268500   254.74826     -354.25248     -279.6029      -354.19616      0              7050.4207      45.269141      20.047001      20.857         18927.947      5871.4688      8557.0295      6722.7638     -756.51957      365.15564     -1344.9121    
  27269000   261.22455     -354.63426     -278.08692     -354.55812      0              3802.0511      45.510347      20.047001      20.857         19028.8        2370.976       3951.3139      5083.8633     -400.83092      712.44143     -892.44365    
  27269500   262.20224     -355.7708      -278.93695     -355.74864      0              4934.5104      45.950736      20.047001      20.857         19212.936      4799.5102      4324.3414      5679.6795     -768.71667     -810.54681      245.36979    
  27270000   256.76895     -355.91968     -280.67797     -355.86109      0              4604.9193      45.816715      20.047001      20.857         19156.898      6294.2979      2368.4214      5152.0385      1227.5896     -869.64212     -1991.6971    
  27270500   257.61748     -355.72359     -280.23323     -355.63658      0              4854.3178      45.513027      20.047001      20.857         19029.92       6545.4021      3920.377       4097.1744     -145.24733      1898.3446      3376.921     
  27271000   258.22466     -354.40931     -278.74102     -354.33878      0              6369.8807      45.4528        20.047001      20.857         19004.739      6038.1363      6413.4464      6658.0594      808.78416     -674.01211      222.5276     
  27271500   259.93184     -354.69618     -278.52763     -354.64752      0              7548.4433      45.576678      20.047001      20.857         19056.534      9753.324       5730.606       7161.4        -70.519179      1060.9792      506.07311    
  27272000   252.17941     -353.92487     -280.02804     -353.86679      0              6885.8326      45.828103      20.047001      20.857         19161.66       9810.7105      5090.7095      5756.0778     -492.54744     -1739.4174      1491.253     
  27272500   260.26503     -355.20642     -278.94025     -355.1329       0              4728.05        45.721437      20.047001      20.857         19117.061      7227.3259      3756.4077      3200.4165      377.06476     -1303.922       245.74652    
  27273000   265.53234     -355.1274      -277.31773     -355.04775      0              6735.8606      45.600985      20.047001      20.857         19066.698      6315.6042      7035.37        6856.6075     -1677.7089     -495.35154      1437.1556    
  27273500   265.47408     -353.47917     -275.68657     -353.41739      0              4965.8766      45.734533      20.047001      20.857         19122.537      3766.2482      6810.9187      4320.4628      495.03225      355.81902      605.94139    
  27274000   263.12914     -353.08151     -275.97606     -353.00058      0              3258.1546      45.755536      20.047001      20.857         19131.318      4717.1816      2055.5634      3001.7188      682.71556     -360.42831      1552.9022    
  27274500   253.27108     -353.89331     -279.67659     -353.80602      0              4873.8009      45.668828      20.047001      20.857         19095.064      5576.0057      4666.8401      4378.5568     -546.29015      1976.8753      3108.2507    
  27275000   266.36896     -353.37203     -275.3172      -353.28268      0              6127.0122      45.568343      20.047001      20.857         19053.049      7450.9644      6066.3435      4863.7285      7.4213976      935.71609      924.93474    
  27275500   255.6938      -353.09925     -278.17259     -353.00494      0              6087.8908      45.858051      20.047001      20.857         19174.182      7701.977       6548.0126      4013.6827     -1140.8314      1251.7552     -60.967632    
  27276000   261.38945     -352.36479     -275.76912     -352.27438      0              7330.2489      46.016012      20.047001      20.857         19240.229      5830.3117      8273.4654      7886.9695     -219.02386      1924.3004     -337.41971    
  27276500   263.84764     -353.68462     -276.36862     -353.60492      0              3921.9202      45.610201      20.047001      20.857         19070.551      5177.3225      4629.9841      1958.454      -985.44515     -1055.3446      2454.0669    
  27277000   259.17666     -354.29708     -278.34983     -354.19746      0              7157.3472      45.588762      20.047001      20.857         19061.587      9669.0205      5756.162       6046.859       706.38976     -999.42491      2584.7402    
  27277500   263.99403     -353.91176     -276.55287     -353.83144      0              4101.9464      45.784494      20.047001      20.857         19143.426      5904.4934      3377.6314      3023.7144     -301.5799       395.3613      -314.77478    
  27278000   265.25594     -354.08887     -276.3602      -353.97961      0              4497.8179      45.704774      20.047001      20.857         19110.094      3536.0023      5712.2779      4245.1734      130.19497     -103.65927     -1207.947     
  27278500   261.4012      -354.35199     -277.75288     -354.24668      0              3514.492       45.674877      20.047001      20.857         19097.593      4850.8067      2680.2311      3012.438       190.63611     -750.04423     -1506.9101    
  27279000   263.67474     -354.22602     -276.96069     -354.13921      0              5164.4165      45.782771      20.047001      20.857         19142.706      4207.4707      5659.1455      5626.6333      557.18032     -1089.7598     -499.64233    
  27279500   256.61517     -352.43604     -277.23939     -352.32424      0              4103.2026      45.838932      20.047001      20.857         19166.188      2618.7006      6196.8808      3494.0263      946.016        1467.0529      1100.7249    
  27280000   267.76057     -356.0776      -277.61499     -355.96819      0              5216.0305      45.667866      20.047001      20.857         19094.662      5745.8863      5583.5072      4318.698       249.10073      145.04318     -730.55346    
  27280500   258.69379     -352.48351     -276.67776     -352.3941       0              7000.8594      45.667146      20.047001      20.857         19094.361      7787.3934      8575.5714      4639.6134     -214.25294     -203.10143     -2832.894     
  27281000   262.94535     -353.6928      -276.6412      -353.59663      0              5906.5511      45.850154      20.047001      20.857         19170.88       7449.8492      5134.967       5134.837      -975.09231     -2033.2029     -1075.0722    
  27281500   267.43963     -356.1833      -277.81473     -356.07843      0              5211.4078      45.685961      20.047001      20.857         19102.228      6092.522       6031.2168      3510.4845     -429.31101     -350.3803       985.33352    
  27282000   257.98573     -354.06915     -278.47089     -353.97001      0              6604.972       45.67172       20.047001      20.857         19096.273      8787.9797      6009.0901      5017.8464      285.4654      -941.00323     -852.76845    
  27282500   260.55682     -355.06695     -278.71527     -354.98023      0              4536.6629      45.705797      20.047001      20.857         19110.521      4949.7141      5460.7198      3199.5548     -1006.1379      476.5869      -991.64008    
  27283000   259.5791      -355.31331     -279.24813     -355.20248      0              3030.0093      45.482203      20.047001      20.857         19017.032      5346.1609      1738.2012      2005.6656      475.06085      1192.0103      916.99658    
  27283500   256.15536     -354.31393     -279.25202     -354.22587      0              5565.9029      45.586606      20.047001      20.857         19060.685      4446.3467      7839.0194      4412.3428     -366.77838      509.44075     -63.272045    
  27284000   258.97406     -352.42127     -276.53339     -352.31942      0              5308.6788      45.814256      20.047001      20.857         19155.871      7613.6899      3530.967       4781.3794      402.13723      546.2756      -48.261521    
  27284500   263.51528     -352.86084     -275.64223     -352.76394      0              3880.6671      45.952319      20.047001      20.857         19213.598      4387.7924      4890.151       2364.058      -1226.5174      47.328916     -762.11534    
  27285000   253.84481     -353.42868     -279.04384     -353.35088      0              4715.8435      45.647687      20.047001      20.857         19086.225      6188.0696      4379.4126      3580.0482     -38.510549     -355.5888      -1351.4869    
  27285500   259.70717     -355.11876     -279.01605     -355.00783      0              5879.3905      45.313556      20.047001      20.857         18946.518      6595.8716      6364.9028      4677.3971      3.8960163     -218.53368     -2655.2072    
  27286000   255.44805     -351.1147      -276.26006     -351.01023      0              6133.9049      45.34926       20.047001      20.857         18961.446      8618.8953      5511.1388      4271.6805      1065.1759      634.30412      616.34074    
  27286500   259.75622     -352.66105     -276.54397     -352.56157      0              6664.1773      45.674564      20.047001      20.857         19097.462      7028.5589      8869.2266      4094.7465      1206.8031      538.98365      718.79267    
  27287000   261.20255     -352.81174     -276.27084     -352.70971      0              6046.3299      45.72247       20.047001      20.857         19117.493      5553.0998      7779.6959      4806.1941     -1280.2556     -1191.6361     -724.62374    
  27287500   260.11959     -355.66991     -279.44636     -355.57869      0              6121.2955      45.353162      20.047001      20.857         18963.078      9602.6951      4785.8223      3975.3693      555.83775      193.12715      354.38721    
  27288000   253.58793     -351.76811     -277.45854     -351.68053      0              5356.8697      45.515016      20.047001      20.857         19030.752      4623.1042      5423.3024      6024.2025     -1750.9958      1417.7509     -792.61942    
ERROR on proc 0: Cannot open restart file restart.lmp.0: Permission denied (../write_restart.cpp:233)
Last command: run             40000000 upto
