LAMMPS (23 Jun 2022)
echo both

include		in.partitions
variable        pid world 0
include		in.temp
variable	temperature equal 260.0
variable        tempDamp equal 0.100 # this is 0.1 ps
include		in.pressure
variable        pressure equal 6079.5
variable        pressureDamp equal 1.0 #this is 1ps
include		in.seed
variable        seed world 745823

units           metal
atom_style	full
read_restart	restart.lmp.${pid}
read_restart	restart.lmp.0
Reading restart file ...
  restart file = 23 Jun 2022, LAMMPS = 23 Jun 2022
  restoring atom style full from restart
  orthogonal box = (1.079473 0 0) to (46.371226 20.047001 20.857)
  4 by 1 by 1 MPI processor grid
Summary of lammps deepmd module ...
  >>> Info of deepmd-kit:
  installed to:       /u/sigbjobo/software/DEEPMD_FROM_SOURCE/deepmd-kit/install
  source:             v2.1.3
  source branch:       master
  source commit:      5a32c49
  source commit at:   2022-07-01 09:52:58 +0800
  surpport model ver.:1.1 
  build float prec:   double
  build with tf inc:  /u/sigbjobo/software/DEEPMD_FROM_SOURCE/tensorflow/install/include;/u/sigbjobo/software/DEEPMD_FROM_SOURCE/tensorflow/install/include
  build with tf lib:  /u/sigbjobo/software/DEEPMD_FROM_SOURCE/tensorflow/install/lib/libtensorflow_cc.so;/u/sigbjobo/software/DEEPMD_FROM_SOURCE/tensorflow/install/lib/libtensorflow_framework.so
  set tf intra_op_parallelism_threads: 0
  set tf inter_op_parallelism_threads: 0
  >>> Info of lammps module:
  use deepmd-kit at:  /u/sigbjobo/software/DEEPMD_FROM_SOURCE/deepmd-kit/install
  source:             v2.1.3
  source branch:      master
  source commit:      5a32c49
  source commit at:   2022-07-01 09:52:58 +0800
  build float prec:   double
  build with tf inc:  /u/sigbjobo/software/DEEPMD_FROM_SOURCE/tensorflow/install/include;/u/sigbjobo/software/DEEPMD_FROM_SOURCE/tensorflow/install/include
  build with tf lib:  /u/sigbjobo/software/DEEPMD_FROM_SOURCE/tensorflow/install/lib/libtensorflow_cc.so;/u/sigbjobo/software/DEEPMD_FROM_SOURCE/tensorflow/install/lib/libtensorflow_framework.so
  restoring pair style deepmd from restart
  2268 atoms
Finding 1-2 1-3 1-4 neighbors ...
  special bond factors lj:    0        0        0       
  special bond factors coul:  0        0        0       
     0 = max # of 1-2 neighbors
     0 = max # of 1-3 neighbors
     0 = max # of 1-4 neighbors
     1 = max # of special neighbors
  special bonds CPU = 0.000 seconds
  read_restart CPU = 0.010 seconds
include 	in.setup
variable	out_freq equal 500
variable	out_freq2 equal 1000
variable	out_freq3 equal 5000

timestep        0.0005

neigh_modify    delay 7 every 1

include         in.deepmd
# This is deepMD model

# create groups ###
#group ox type 2
#group hy type 1

mass 2 15.999
mass 1 1.008

pair_style      deepmd ../graph.pb
pair_coeff      * *

bond_style      none
angle_style     none
dihedral_style  none
improper_style  none
neigh_modify exclude none


neighbor        2.0 bin
neigh_modify    every 10 delay 0 check no

thermo          ${out_freq}
thermo          500
thermo_style 	custom step temp pe etotal epair emol press lx ly lz vol pxx pyy pzz pxy pxz pyz
#thermo_modify	flush yes
restart 	${out_freq} restart.lmp.${pid} restart2.lmp.${pid}
restart 	500 restart.lmp.${pid} restart2.lmp.${pid}
restart 	500 restart.lmp.0 restart2.lmp.${pid}
restart 	500 restart.lmp.0 restart2.lmp.0

include		in.dump
dump            myDump all atom ${out_freq3} dump.water.${pid}
dump            myDump all atom 5000 dump.water.${pid}
dump            myDump all atom 5000 dump.water.0
dump            myDump2 all dcd ${out_freq2} dump.dcd.${pid}
dump            myDump2 all dcd 1000 dump.dcd.${pid}
dump            myDump2 all dcd 1000 dump.dcd.0
dump_modify     myDump append yes
dump_modify     myDump2 append yes


timer           timeout 23:50:00 every 1000
New timer settings: style=normal  mode=nosync  timeout=23:50:00

fix             1 all plumed plumedfile plumed.dat outfile plumed.out
fix             3 all nph x ${pressure} ${pressure} ${pressureDamp}
fix             3 all nph x 6079.5 ${pressure} ${pressureDamp}
fix             3 all nph x 6079.5 6079.5 ${pressureDamp}
fix             3 all nph x 6079.5 6079.5 1
Resetting global fix info from restart file:
  fix style: nph, fix ID: 3
fix             4 all temp/csvr ${temperature} ${temperature} ${tempDamp} ${seed}
fix             4 all temp/csvr 260 ${temperature} ${tempDamp} ${seed}
fix             4 all temp/csvr 260 260 ${tempDamp} ${seed}
fix             4 all temp/csvr 260 260 0.1 ${seed}
fix             4 all temp/csvr 260 260 0.1 745823
Resetting global fix info from restart file:
  fix style: temp/csvr, fix ID: 4

run             40000000 upto

CITE-CITE-CITE-CITE-CITE-CITE-CITE-CITE-CITE-CITE-CITE-CITE-CITE

Your simulation uses code contributions which should be cited:

- USER-DEEPMD package:

@article{Wang_ComputPhysCommun_2018_v228_p178,
  author = {Wang, Han and Zhang, Linfeng and Han, Jiequn and E, Weinan},
  doi = {10.1016/j.cpc.2018.03.016},
  url = {https://doi.org/10.1016/j.cpc.2018.03.016},
  year = 2018,
  month = {jul},
  publisher = {Elsevier {BV}},
  volume = 228,
  journal = {Comput. Phys. Commun.},
  title = {{DeePMD-kit: A deep learning package for many-body potential energy representation and molecular dynamics}},
  pages = {178--184}
}

CITE-CITE-CITE-CITE-CITE-CITE-CITE-CITE-CITE-CITE-CITE-CITE-CITE

Generated 0 of 1 mixed pair_coeff terms from geometric mixing rule
All restart file global fix info was re-assigned
Neighbor list info ...
  update every 10 steps, delay 0 steps, check no
  max neighbors/atom: 2000, page size: 100000
  master list distance cutoff = 8
  ghost atom cutoff = 8
  binsize = 4, bins = 12 6 6
  1 neighbor lists, perpetual/occasional/extra = 1 0 0
  (1) pair deepmd, perpetual
      attributes: full, newton on
      pair build: full/bin
      stencil: full/bin/3d
      bin: standard
Per MPI rank memory allocation (min/avg/max) = 6.187 | 6.189 | 6.189 Mbytes
   Step          Temp          PotEng         TotEng         E_pair         E_mol          Press            Lx             Ly             Lz           Volume          Pxx            Pyy            Pzz            Pxy            Pxz            Pyz      
  26448000   258.98561     -352.03442     -276.14315     -352.03442      0              7675.4176      45.291753      20.047001      20.857         18937.401      7814.7906      10016.53       5194.9318     -761.89064      1048.708       41.088647    
  26448500   254.52035     -353.85153     -279.26873     -353.74956      0              6481.3997      45.585487      20.047001      20.857         19060.217      6327.159       5993.3418      7123.6982      2223.9274      810.88909      384.43669    
  26449000   255.2893      -354.57512     -279.767       -354.48778      0              5620.9328      45.576407      20.047001      20.857         19056.421      7175.7189      5782.138       3904.9416      958.76557      870.50131     -1040.7851    
  26449500   254.90633     -355.00845     -280.31255     -354.89975      0              5717.6658      45.543851      20.047001      20.857         19042.809      4937.2585      6342.8961      5872.8427      537.10861      434.20602     -491.98137    
  26450000   250.02746     -353.32517     -280.05894     -353.22442      0              4386.396       45.913885      20.047001      20.857         19197.527      6430.4558      1777.7512      4950.9811      199.59547      1051.0102     -986.26573    
  26450500   257.38763     -354.85145     -279.42845     -354.74385      0              6367.0754      45.727907      20.047001      20.857         19119.766      7098.4895      7001.4284      5001.3084     -1260.2495     -475.97999      1192.913     
  26451000   264.66346     -355.33469     -277.77963     -355.2372       0              3640.372       45.567283      20.047001      20.857         19052.606      4654.2086      2406.2895      3860.618       652.68407      1870.1459     -165.23523    
  26451500   256.68531     -353.05308     -277.83587     -352.93939      0              6009.858       45.404136      20.047001      20.857         18984.391      8259.7387      5374.0174      4395.8179      958.22552     -513.30923      933.12453    
  26452000   260.37421     -352.81247     -276.5143      -352.71342      0              6187.7199      45.6497        20.047001      20.857         19087.066      8873.3988      3908.7843      5780.9765      462.95895      792.1358      -488.31133    
  26452500   253.24654     -353.84107     -279.63154     -353.74921      0              5919.1782      45.856248      20.047001      20.857         19173.428      5856.4301      5773.8308      6127.2738      677.59016      161.48776      13.728253    
  26453000   254.77431     -354.05436     -279.39715     -353.94534      0              6193.7269      45.590492      20.047001      20.857         19062.31       8105.0848      3761.9307      6714.1653     -712.45421      2475.9508      1085.1302    
  26453500   262.91706     -355.49297     -278.44966     -355.38594      0              6577.9178      45.491642      20.047001      20.857         19020.979      7272.9678      4608.4977      7852.2879     -2100.2696      363.67791     -331.61474    
  26454000   255.50384     -352.67346     -277.80247     -352.57268      0              5970.3939      45.656341      20.047001      20.857         19089.843      6901.7429      3311.0095      7698.4293      330.21766     -788.92152     -405.09592    
  26454500   254.3465      -350.20892     -275.67706     -350.13052      0              6722.7651      45.699503      20.047001      20.857         19107.89       7980.5042      6831.826       5355.9652     -902.35872      1153.6924     -1075.8762    
  26455000   262.0959      -352.39879     -275.5961      -352.28996      0              6102.0876      45.636694      20.047001      20.857         19081.628      7403.3347      4556.5556      6346.3725     -497.10672      782.33748      44.105641    
  26455500   250.54952     -352.11062     -278.69141     -352.01216      0              5125.7304      45.608112      20.047001      20.857         19069.677      6424.0648      6877.4093      2075.7171     -936.04148      1458.9303     -919.79685    
  26456000   260.00647     -348.57945     -272.38904     -348.51896      0              5307.4115      45.733135      20.047001      20.857         19121.952      8216.9786      4775.0436      2930.2122     -89.252979     -3147.9786     -796.30705    
  26456500   265.99101     -352.55548     -274.6114      -352.46703      0              1573.1489      45.946152      20.047001      20.857         19211.019      1709.3801      1578.8063      1431.2603     -1618.2636      2549.7035     -275.99409    
  26457000   270.26277     -352.00682     -272.81098     -351.89819      0              6563.0388      45.583751      20.047001      20.857         19059.492      8076.2626      3550.8201      8062.0336      528.97519      1193.8142     -508.34035    
  26457500   263.21837     -353.99032     -276.85872     -353.88359      0              4551.6375      45.230065      20.047001      20.857         18911.608      6447.9812      3200.4072      4006.524      -1930.7833     -341.25506     -1060.1761    
  26458000   260.75424     -352.62709     -276.21756     -352.51557      0              5446.5136      45.411303      20.047001      20.857         18987.388      3441.3861      7351.2014      5546.9533     -554.68715      2251.9048      1922.9718    
  26458500   254.53763     -353.14824     -278.56038     -353.07024      0              5518.978       45.768559      20.047001      20.857         19136.764      5009.0936      5029.3789      6518.4615     -287.45816      427.16095      838.55822    
  26459000   265.76487     -354.65789     -276.78008     -354.56054      0              2666.5956      45.741088      20.047001      20.857         19125.278      2663.1283      4367.0055      969.65309     -1830.2949     -200.96691      336.07297    
  26459500   261.34264     -354.46843     -277.88647     -354.35789      0              3227.1529      45.600719      20.047001      20.857         19066.586      2478.1741      3859.1521      3344.1325      137.3124       1594.3457     -1260.9158    
  26460000   258.97024     -355.25431     -279.36755     -355.14318      0              7445.9893      45.84811       20.047001      20.857         19170.026      6760.753       8589.2455      6987.9695      403.15421     -525.63879      1640.0013    
  26460500   261.92358     -353.57772     -276.82553     -353.4853       0              5637.294       45.974798      20.047001      20.857         19222.996      4970.7437      5924.8612      6016.2771      676.87149      902.3344       2461.6846    
  26461000   268.86586     -357.3591      -278.5726      -357.26264      0              5373.5582      45.584383      20.047001      20.857         19059.756      7142.3562      3065.8759      5912.4425     -1179.136       680.76059      859.45783    
  26461500   257.31907     -353.47868     -278.07577     -353.36506      0              7279.8612      45.421163      20.047001      20.857         18991.51       8847.2527      6275.0619      6717.2691     -194.8517       987.73998     -235.14864    
  26462000   259.14107     -354.70551     -278.76869     -354.59256      0              5526.1323      45.761296      20.047001      20.857         19133.727      8245.8952      3781.29        4551.2119     -53.191868     -1237.1112     -1348.5599    
  26462500   252.59231     -354.62005     -280.60223     -354.52964      0              2237.4992      45.89827       20.047001      20.857         19190.998      4104.2258      2743.9456     -135.67395     -1744.7876     -464.85189     -1123.9632    
  26463000   259.70367     -355.57629     -279.47461     -355.49555      0              6475.9153      45.744771      20.047001      20.857         19126.818      5331.0484      6365.5562      7731.1413     -948.11681      174.61287     -1139.6686    
  26463500   265.96967     -353.90917     -275.97134     -353.79736      0              5170.6671      45.766868      20.047001      20.857         19136.057      4628.8101      6408.3077      4474.8835     -460.02077     -1677.4945     -490.65854    
  26464000   255.55917     -355.96403     -281.07683     -355.85348      0              6709.5951      45.68786       20.047001      20.857         19103.022      5818.9109      8169.145       6140.7295      90.167328     -992.52909      151.94012    
  26464500   263.94426     -354.3955      -277.05118     -354.29387      0              5350.1835      45.503773      20.047001      20.857         19026.051      5700.7091      4071.3881      6278.4532      1080.1324      249.21792     -546.24352    
  26465000   258.93626     -354.74728     -278.87048     -354.6342       0              5447.7813      45.753634      20.047001      20.857         19130.523      6533.0217      4642.6185      5167.7038     -2155.3584      560.10754      1549.5884    
  26465500   255.09026     -356.19074     -281.44094     -356.07895      0              4781.3945      46.033497      20.047001      20.857         19247.54       6483.2359      2785.0924      5075.8552      339.18593     -1311.1277     -455.32736    
  26466000   254.77465     -353.89687     -279.23955     -353.78735      0              4867.0712      45.973599      20.047001      20.857         19222.495      5909.72        2179.1891      6512.3045      1591.8689     -60.273445     -1515.8571    
  26466500   261.09884     -354.44309     -277.93258     -354.35117      0              5919.8562      45.684126      20.047001      20.857         19101.461      4576.8182      5216.631       7966.1193     -1056.5031     -1907.9482     -2094.6442    
  26467000   258.0207      -353.45147     -277.84296     -353.34698      0              5924.2263      45.750564      20.047001      20.857         19129.24       6522.8927      4975.1255      6274.6608     -693.76226      494.72295      612.78377    
  26467500   261.96834     -354.3138      -277.5485      -354.2144       0              5357.4561      46.239303      20.047001      20.857         19333.591      8471.6873      4052.2157      3548.4653     -1381.0717     -959.03735      39.282995    
  26468000   249.05643     -355.65295     -282.67126     -355.53945      0              3107.5599      46.052177      20.047001      20.857         19255.35       3088.1872      2748.4465      3486.0459      1911.9735     -282.82901      429.04797    
  26468500   269.66339     -354.86164     -275.84144     -354.76186      0              6176.828       45.815588      20.047001      20.857         19156.427      7744.0943      5280.7248      5505.6651      613.59282     -1724.7017      616.82193    
  26469000   260.94787     -355.75009     -279.28382     -355.63801      0              3998.5332      45.992585      20.047001      20.857         19230.433      5542.6386      4224.0306      2228.9303     -87.653985     -902.84555      418.18135    
  26469500   257.93471     -355.21195     -279.62864     -355.10908      0              4467.2109      46.039949      20.047001      20.857         19250.237      5829.6506      3063.7118      4508.2702      15.639951      227.71484     -1225.486     
  26470000   260.30764     -355.09524     -278.81658     -354.98751      0              5120.1285      45.910267      20.047001      20.857         19196.015      7466.2044      2621.1866      5272.9946      347.02328     -1651.7575      479.22018    
  26470500   258.58516     -353.62085     -277.84693     -353.50722      0              4688.0417      45.851227      20.047001      20.857         19171.329      4912.0635      5179.2902      3972.7714     -1274.2094     -1527.6675     -161.42274    
  26471000   257.89002     -355.06575     -279.49553     -354.95548      0              4961.4526      45.627897      20.047001      20.857         19077.95       4332.9429      5876.8797      4674.5353     -1523.7321      760.97777      1214.8048    
  26471500   260.10552     -354.64405     -278.42461     -354.53082      0              5747.9036      45.449786      20.047001      20.857         19003.478      7246.3192      5566.3625      4431.0291      20.286023     -1179.0807     -1195.8615    
  26472000   260.60327     -355.38739     -279.02209     -355.2986       0              5672.4956      45.837718      20.047001      20.857         19165.68       5412.9886      4971.0929      6633.4053     -243.05806     -944.51705      952.05268    
  26472500   257.47191     -355.26741     -279.81971     -355.17214      0              4495.0394      46.033305      20.047001      20.857         19247.459      5206.8177      4590.8909      3687.4097     -812.01104      883.23319     -779.5971     
  26473000   265.02252     -353.70967     -276.04939     -353.61261      0              6536.7422      45.802006      20.047001      20.857         19150.749      9469.6371      6130.3554      4010.2341     -135.70872     -2586.3715      2341.3369    
  26473500   262.48625     -351.8802      -274.96313     -351.78506      0              8994.2464      45.602369      20.047001      20.857         19067.276      10720.005      6955.8833      9306.851      -16.385072      269.30495      112.74863    
  26474000   259.32006     -351.38771     -275.39844     -351.27911      0              6844.2012      45.644525      20.047001      20.857         19084.903      6931.033       7499.3932      6102.1773     -385.26744      568.68303      234.05311    
  26474500   272.83966     -354.07961     -274.12866     -353.97765      0              6647.5834      45.870005      20.047001      20.857         19179.18       7500.7897      8006.7556      4435.205      -2100.38        166.05183      1296.9335    
  26475000   264.41707     -353.91234     -276.42948     -353.79977      0              5878.1927      45.693409      20.047001      20.857         19105.342      5567.0298      5654.9905      6412.5576     -0.11316427     564.07926     -191.48967    
  26475500   255.03011     -354.82234     -280.09016     -354.71557      0              5209.7388      45.796616      20.047001      20.857         19148.495      9143.9814      3647.0596      2838.1753      1131.454      -1049.7319      40.141583    
  26476000   272.13778     -355.17844     -275.43315     -355.07264      0              6960.6453      45.868201      20.047001      20.857         19178.426      5964.57        7506.7914      7410.5746     -2022.2826     -606.37395      375.52111    
  26476500   269.9549      -354.07807     -274.97244     -354.01265      0              4076.7413      45.650266      20.047001      20.857         19087.303      6005.4355      2355.7933      3868.9952     -538.61762     -1095.7518     -609.59457    
  26477000   262.85892     -352.0383      -275.01203     -351.94729      0              6184.1597      45.47665       20.047001      20.857         19014.711      6412.0057      6151.8685      5988.6048     -198.92044      1832.9905      768.57665    
  26477500   263.47342     -353.88476     -276.67842     -353.77122      0              5273.1163      45.497865      20.047001      20.857         19023.581      7495.4448      3807.6809      4516.2231      2141.2211     -109.73667      918.01009    
  26478000   256.96815     -352.57002     -277.26993     -352.4568       0              3141.5814      45.723856      20.047001      20.857         19118.072      4890.7237      2456.6892      2077.3313     -890.85063     -1386.5052     -1304.8785    
  26478500   269.15152     -354.1542      -275.28399     -354.06663      0              7562.8456      45.765404      20.047001      20.857         19135.444      8442.7891      6421.0266      7824.721      -304.80567     -682.94945      928.1859     
  26479000   259.61302     -353.37544     -277.30032     -353.2632       0              4836.6464      45.723281      20.047001      20.857         19117.832      6541.4862      3605.9264      4362.5265     -1225.8906     -345.46718      487.08643    
  26479500   261.92535     -352.33469     -275.58198     -352.24252      0              5950.6671      45.530394      20.047001      20.857         19037.182      7678.6245      5084.505       5088.8718     -861.3784      -187.15823      115.25993    
  26480000   263.3629      -351.98392     -274.80997     -351.88313      0              6067.3114      45.574664      20.047001      20.857         19055.692      7490.0093      4561.026       6150.8989      1636.813       20.338851     -1530.236     
  26480500   262.45665     -351.2363      -274.3279      -351.13844      0              5880.1443      45.840406      20.047001      20.857         19166.805      5671.5443      5094.4876      6874.401       882.12676      223.33564      1123.3112    
  26481000   259.64497     -351.31683     -275.23235     -351.2062       0              5717.0179      45.713798      20.047001      20.857         19113.867      5913.3932      6318.4022      4919.2583     -1081.1271      750.0421       827.10141    
  26481500   253.51028     -355.38555     -281.09873     -355.27543      0              4941.3041      45.34232       20.047001      20.857         18958.545      6172.0106      5322.1515      3329.7501      63.2887       -1363.8202     -1034.69      
  26482000   260.27471     -352.43335     -276.16434     -352.3199       0              6166.6063      45.445617      20.047001      20.857         19001.735      5302.4695      7378.9651      5818.3843     -458.36694     -1400.8533     -435.10222    
  26482500   265.4839      -355.80636     -278.01089     -355.69555      0              4995.604       45.965625      20.047001      20.857         19219.161      4600.1482      4955.3111      5431.3526     -92.551848      261.06613     -412.07166    
  26483000   263.48302     -355.1665      -277.95735     -355.05595      0              6646.1285      45.893881      20.047001      20.857         19189.163      6424.7984      7377.9131      6135.6741      127.947       -1720.7613     -332.75732    
  26483500   258.15129     -354.21856     -278.57178     -354.1234       0              4811.9048      45.567588      20.047001      20.857         19052.734      5066.3453      4680.3006      4689.0685     -717.08461     -1568.1395     -957.35349    
  26484000   258.53657     -352.67152     -276.91184     -352.565        0              6603.3266      45.51678       20.047001      20.857         19031.49       10423.945      5178.0918      4207.9427      555.86312      289.58831      917.70716    
  26484500   264.75717     -356.25838     -278.67586     -356.16248      0              5398.6798      45.778323      20.047001      20.857         19140.846      6950.5577      3716.9895      5528.4923     -304.30796      160.09351     -1165.5827    
  26485000   257.19326     -353.84562     -278.47957     -353.75823      0              6014.9193      45.847521      20.047001      20.857         19169.779      6771.4453      6136.4828      5136.8298     -752.14023     -86.334128      415.79456    
  26485500   255.1635      -354.80595     -280.03469     -354.7237       0              7042.3953      45.745274      20.047001      20.857         19127.028      8264.6969      6736.105       6126.3841      848.58915     -2021.3254     -1921.7358    
  26486000   251.44905     -353.29632     -279.61351     -353.19192      0              4235.9491      45.697963      20.047001      20.857         19107.246      5326.1563      1325.3672      6056.3237      1168.9398     -535.47926     -189.99896    
  26486500   263.30579     -353.72122     -276.564       -353.61759      0              5925.0036      45.799046      20.047001      20.857         19149.511      5260.3731      5257.8178      7256.8199     -409.79993     -524.55271      126.61524    
  26487000   260.25416     -354.53122     -278.26823     -354.46347      0              5393.1347      45.81877       20.047001      20.857         19157.758      4213.9901      5538.2625      6427.1514     -676.64956     -995.19018      1724.5117    
  26487500   256.97455     -355.22075     -279.91879     -355.1275       0              4964.0157      45.614884      20.047001      20.857         19072.509      4696.5437      5973.9172      4221.5863      131.1672      -563.20342     -293.62048    
  26488000   260.44643     -351.08753     -274.7682      -350.9797       0              4356.2126      45.550169      20.047001      20.857         19045.45       5025.5066      2846.4839      5196.6474      370.211        1458.492      -1486.2043    
  26488500   251.43306     -352.20387     -278.52575     -352.09628      0              4425.3018      45.644108      20.047001      20.857         19084.728      4067.8607      4412.1643      4795.8803     -535.08821      230.32376      732.90591    
  26489000   259.51332     -355.67147     -279.62557     -355.5629       0              5153.0953      45.881244      20.047001      20.857         19183.88       8518.8559      2910.0749      4030.3551      203.72288     -508.59074      192.3804     
  26489500   259.71223     -354.19791     -278.09372     -354.09311      0              3261.1718      45.780696      20.047001      20.857         19141.838      3104.1396      3220.2203      3459.1554      977.54245      1407.1275      288.82563    
  26490000   256.84623     -353.91378     -278.64942     -353.81329      0              5497.9238      45.301278      20.047001      20.857         18941.384      4954.8174      5821.7759      5717.1782      34.414002     -1753.4961      407.71286    
  26490500   259.97495     -354.08318     -277.902       -354.01131      0              4501.0685      45.496117      20.047001      20.857         19022.85       4855.1089      3301.4233      5346.6732     -900.82074     -332.46193      360.11677    
  26491000   252.93642     -351.983       -277.86435     -351.87691      0              6333.6884      45.916212      20.047001      20.857         19198.5        4317.5092      8721.1546      5962.4014     -439.43072      83.081082     -2252.7957    
  26491500   255.46643     -353.85853     -278.9985      -353.75443      0              6069.7828      46.022341      20.047001      20.857         19242.875      6009.677       5216.9956      6982.6757      208.76293      1968.744      -507.21031    
  26492000   259.22882     -354.60318     -278.64065     -354.48969      0              3688.5589      45.566759      20.047001      20.857         19052.387      4365.0105      4292.2329      2408.4333      864.86998     -1674.6625     -52.209586    
  26492500   259.14583     -353.56689     -277.62868     -353.45513      0              5441.6046      45.486463      20.047001      20.857         19018.814      8272.4269      3999.9703      4052.4168     -1318.4765     -496.60768     -2168.1928    
  26493000   261.57939     -351.79305     -275.14172     -351.7068       0              7758.0339      45.690372      20.047001      20.857         19104.072      7900.8444      8705.6706      6667.5866      843.57238      995.65255      513.35936    
  26493500   264.10053     -351.54917     -274.15907     -351.43713      0              4685.2338      45.72952       20.047001      20.857         19120.441      5061.0115      3268.6634      5726.0264      711.90389     -600.47394     -2160.0715    
  26494000   261.61164     -351.08032     -274.41954     -350.97807      0              4869.3319      45.686667      20.047001      20.857         19102.523      6263.338       3967.9454      4376.7123      699.46093      402.81581     -36.545414    
  26494500   259.17351     -351.87843     -275.9321      -351.79037      0              3966.2608      45.559009      20.047001      20.857         19049.146      4441.2959      2411.4842      5046.0023     -1022.1615      405.56301      676.42844    
  26495000   258.78658     -353.25524     -277.42229     -353.16218      0              3567.2352      45.560107      20.047001      20.857         19049.606      5270.6237      3729.7121      1701.3697     -495.11072     -898.77174      113.86291    
  26495500   264.53368     -351.04366     -273.52663     -350.93499      0              4678.3304      45.879403      20.047001      20.857         19183.11       3061.3038      5875.1794      5098.5079      837.32034      941.35779     -1665.2425    
  26496000   259.52652     -353.20938     -277.15962     -353.10595      0              5414.5561      45.930457      20.047001      20.857         19204.456      7085.2049      4610.337       4548.1264     -24.556398      817.74088      957.36206    
  26496500   256.38709     -352.37403     -277.24421     -352.26068      0              2553.5388      45.787656      20.047001      20.857         19144.749      2641.5113      2838.1366      2180.9686      1015.6089      482.80448     -399.9928     
  26497000   258.31342     -352.78213     -277.08783     -352.72371      0              2934.9553      45.948647      20.047001      20.857         19212.062      3372.9385      2200.9522      3230.9751      895.27955      529.88767     -846.00658    
  26497500   256.91679     -354.68493     -279.3999      -354.63357      0              4680.0919      45.852524      20.047001      20.857         19171.871      6338.1609      4955.4303      2746.6843     -5.9466569      903.8867      -614.84369    
ERROR on proc 0: Cannot open restart file restart2.lmp.0: Permission denied (../write_restart.cpp:233)
Last command: run             40000000 upto
