LAMMPS data file via write_data, version 29 Sep 2021, timestep = 400000

864 atoms
2 atom types

0.11870495503838363 18.08886804496207 xlo xhi
0.08416138669189621 23.545015613310195 ylo yhi
0.1964773519726215 22.016718648027926 zlo zhi

Masses

1 1.008
2 15.999

Atoms # full

706 0 1 -1.1794 2.7765931734789455 1.8892141582846427 2.9211361748858975 0 0 0
708 0 2 0.5897 1.9819614876370726 2.445113506618998 2.7519521661998425 0 0 0
707 0 2 0.5897 2.9121983981322686 1.7597416257276692 3.846562897693936 0 0 0
1 0 1 -1.1794 0.5536122690364327 3.587108441574682 2.196907829868658 0 0 0
3 0 2 0.5897 0.5857479247089892 4.508130235712121 2.5060602137640497 0 0 0
188 0 2 0.5897 2.604007810909223 0.3524304843902943 2.2000986143271364 0 0 0
29 0 2 0.5897 4.363463183577255 2.339874825793868 2.3433022498306295 0 0 0
28 0 1 -1.1794 5.147215500247479 2.820264397519316 2.1167391847921753 0 0 0
30 0 2 0.5897 5.056048385939295 3.767443312825279 2.372344830153179 0 0 0
493 0 1 -1.1794 7.4169512042251196 1.6914243501970123 2.99571292983204 0 0 0
494 0 2 0.5897 6.664339485740861 2.212782944768976 2.687920351522488 0 0 0
495 0 2 0.5897 8.256714343339116 2.0231779581455434 2.680248261799387 0 0 0
668 0 2 0.5897 5.036673514881247 2.7572915737074806 0.3942279548413168 0 0 0
819 0 2 0.5897 7.317256471034043 0.09990316294876306 2.630634978591033 0 0 0
748 0 1 -1.1794 9.833565409234595 2.9616151212882653 2.097659977084333 0 0 0
750 0 2 0.5897 9.777468003327924 2.903062002054727 1.146101275104105 0 0 0
106 0 1 -1.1794 11.988631677269955 1.817159298211645 3.1788683234464186 0 0 0
108 0 2 0.5897 11.14311636208216 2.1427862264968582 2.8554584441339412 0 0 0
749 0 2 0.5897 9.880942101626031 3.868097721782587 2.370065796295765 0 0 0
107 0 2 0.5897 12.075307434152965 1.803096920573723 4.147815129139968 0 0 0
63 0 2 0.5897 12.029347707124865 0.3328012333440731 2.5326141407655762 0 0 0
215 0 2 0.5897 13.304991123714936 2.7535073190714687 2.764532409078377 0 0 0
2 0 2 0.5897 17.68503225009291 3.284037076024344 2.499064762402154 0 0 0
216 0 2 0.5897 14.043985728283777 4.121038706674705 2.7993736320419464 0 0 0
214 0 1 -1.1794 14.062301787849107 3.2079357913211424 2.5509750257963755 0 0 0
406 0 1 -1.1794 16.361296855727915 1.8163312275509373 2.53504738252458 0 0 0
407 0 2 0.5897 16.327350801618543 0.9263327022438966 2.208863492406981 0 0 0
408 0 2 0.5897 15.478552167469237 2.133708323658454 2.7715594352802544 0 0 0
369 0 2 0.5897 14.293936341848134 2.9768901984677636 0.788392722654525 0 0 0
660 0 2 0.5897 16.788768581779983 1.4632321146641536 4.457028926894192 0 0 0
123 0 2 0.5897 3.041890345179384 8.787773380213459 3.0839648468342946 0 0 0
253 0 1 -1.1794 2.9686048870378356 7.014993806931864 1.9656603568077888 0 0 0
254 0 2 0.5897 2.978526628645205 7.1322333158422575 0.9832148386489791 0 0 0
255 0 2 0.5897 2.0778209308575812 6.698890217326335 2.22121768854684 0 0 0
595 0 1 -1.1794 0.5728122678205532 6.289565201125987 2.9027404376082075 0 0 0
597 0 2 0.5897 0.6114347471634387 6.321089945153683 3.8433428022968372 0 0 0
138 0 2 0.5897 4.240316926948709 6.0065388442401435 2.519464273210173 0 0 0
136 0 1 -1.1794 4.910428898739178 5.450216851071868 2.906347292393055 0 0 0
65 0 2 0.5897 7.229166508803528 8.485309221468713 3.0065374602432144 0 0 0
415 0 1 -1.1794 7.375446350756886 6.65625154452836 2.5280763633687027 0 0 0
416 0 2 0.5897 6.638332263002225 6.12360453631896 2.77273679747415 0 0 0
417 0 2 0.5897 8.19147832462181 6.2411535695483416 2.9173259677553833 0 0 0
137 0 2 0.5897 4.743285537671174 5.522934310567902 3.911354698648442 0 0 0
162 0 2 0.5897 7.527798143727446 6.5313486762234385 0.6137893915256769 0 0 0
64 0 1 -1.1794 7.234587339716569 9.458962770663021 3.1006343512330905 0 0 0
190 0 1 -1.1794 11.784910259940494 7.12240376098009 2.3805141948079767 0 0 0
191 0 2 0.5897 11.828199878526373 7.015916064024796 1.4188646683465977 0 0 0
192 0 2 0.5897 11.86367842564723 8.055709177492751 2.5214988127694213 0 0 0
298 0 1 -1.1794 9.711156200648688 5.443929585075382 3.410262106872507 0 0 0
299 0 2 0.5897 10.436712575874733 6.092761441307295 3.2319269588005 0 0 0
300 0 2 0.5897 9.483577332367169 5.600253295439691 4.349797307136347 0 0 0
110 0 2 0.5897 13.129597027691279 6.363039743592924 2.834007021743257 0 0 0
596 0 2 0.5897 17.71538710407603 6.772483316245718 2.6698103555371535 0 0 0
109 0 1 -1.1794 13.916604771862094 5.899257779458394 3.102707229124839 0 0 0
111 0 2 0.5897 14.719850273525111 6.247053272608137 2.744526627018678 0 0 0
838 0 1 -1.1794 16.127279317953445 7.244963229091683 2.171692523490167 0 0 0
839 0 2 0.5897 16.117810311316816 8.174090803384589 2.5521373764457547 0 0 0
840 0 2 0.5897 16.257219716784498 7.230103066942703 1.2058838265101788 0 0 0
842 0 2 0.5897 16.4067195355693 9.358503328357898 4.462297769416585 0 0 0
122 0 2 0.5897 3.0101167750251157 9.72066912280369 4.392593641105733 0 0 0
121 0 1 -1.1794 2.9310059143717067 9.675304270788887 3.419253219044132 0 0 0
44 0 2 0.5897 1.3980297878861334 10.25866364543883 2.5527758791642747 0 0 0
45 0 2 0.5897 0.23844373452482098 11.370292489278762 2.5324181392170346 0 0 0
43 0 1 -1.1794 0.4791920604492947 10.437686030040439 2.2748594867343352 0 0 0
374 0 2 0.5897 0.22542925435353406 13.302241660751454 3.8174793069023503 0 0 0
396 0 2 0.5897 0.3230861572224934 10.530185063413219 0.5337411474474035 0 0 0
219 0 2 0.5897 4.417397871884957 10.616869885373005 2.4612384007289294 0 0 0
173 0 2 0.5897 3.604840185473277 13.994774194648267 2.5689917710402743 0 0 0
172 0 1 -1.1794 4.528234664015716 13.634442602398318 2.829109267529074 0 0 0
174 0 2 0.5897 4.574655697026936 12.81786085218145 2.338542212232622 0 0 0
557 0 2 0.5897 1.6308415485348535 13.871664102409483 2.1986908885841654 0 0 0
66 0 2 0.5897 7.300511803038882 9.557201587914864 4.070016210775934 0 0 0
218 0 2 0.5897 5.874095585962716 10.398780073873551 2.372536749012712 0 0 0
217 0 1 -1.1794 5.148748197377285 10.908378661195469 1.9139631505216705 0 0 0
773 0 2 0.5897 8.673353547632527 10.36693160684872 2.615543646285953 0 0 0
200 0 2 0.5897 5.3154914731451495 13.76786508635374 4.379427726688268 0 0 0
92 0 2 0.5897 11.874874520509719 9.551005164877834 4.156973648446154 0 0 0
91 0 1 -1.1794 11.914481263304424 9.826562791777596 3.217058358514687 0 0 0
772 0 1 -1.1794 9.544807397664862 10.814028401314618 2.261134705828499 0 0 0
774 0 2 0.5897 9.407447973978329 10.863936588479948 1.2851129768218854 0 0 0
93 0 2 0.5897 11.106862970340364 10.370725848410489 2.9787692403580435 0 0 0
154 0 1 -1.1794 9.424107165297873 13.576183821855063 2.8867468224038824 0 0 0
156 0 2 0.5897 9.572574263841673 12.619778036377205 2.6552188568777213 0 0 0
155 0 2 0.5897 10.266741444550458 14.009311294109136 2.7178738622530276 0 0 0
860 0 2 0.5897 13.325451501837895 10.524440759297807 2.8778366745030755 0 0 0
373 0 1 -1.1794 18.022655274175484 13.132571878114735 2.8822752795062914 -1 0 0
841 0 1 -1.1794 16.316169768808535 9.614543585792326 3.5152138586386825 0 0 0
55 0 1 -1.1794 13.795276000484138 13.64112880984687 3.255043660176286 0 0 0
57 0 2 0.5897 13.840919219925146 12.648335053858766 3.0917488916951785 0 0 0
843 0 2 0.5897 17.225149286650087 9.928712066656175 3.2397584530764925 0 0 0
859 0 1 -1.1794 14.142508311008438 10.990631902155135 2.554704634153933 0 0 0
861 0 2 0.5897 14.856207219886569 10.601892861244611 3.075765509502538 0 0 0
56 0 2 0.5897 13.757929877059883 13.707945160451478 4.223358158539461 0 0 0
152 0 2 0.5897 13.940059332458675 11.04786821973004 0.7485065089651919 0 0 0
375 0 2 0.5897 17.265878667645623 13.689979836005557 2.6611669000929203 0 0 0
556 0 1 -1.1794 2.222384519652846 14.550571103990505 1.804517471057624 0 0 0
292 0 1 -1.1794 2.2949164916328573 17.183458425688215 2.8081139077376696 0 0 0
293 0 2 0.5897 2.2631933916252107 16.24769218407869 2.490930123886627 0 0 0
558 0 2 0.5897 2.382713982413497 14.374734599027958 0.8640297039177605 0 0 0
344 0 2 0.5897 1.144407767766203 18.283286305714192 2.34100891529745 0 0 0
294 0 2 0.5897 2.534037215873484 17.19495713534529 3.7455789542600897 0 0 0
343 0 1 -1.1794 0.41326490206723066 18.831381014061694 1.989666088370166 0 0 0
227 0 2 0.5897 3.7183324871444348 18.573442251430784 2.0727871232036703 0 0 0
479 0 2 0.5897 7.536276510383687 14.469235913807308 2.4247551912329195 0 0 0
480 0 2 0.5897 5.925105596760361 14.415711918168578 2.460596207961819 0 0 0
448 0 1 -1.1794 7.076531138966992 17.576785280792414 2.899757238675302 0 0 0
449 0 2 0.5897 7.00393563680758 16.624287539983822 2.574406255086102 0 0 0
450 0 2 0.5897 6.1822889244112185 17.925390340293326 2.861728122945052 0 0 0
478 0 1 -1.1794 6.725452488111482 14.961168412392555 2.2882407925727732 0 0 0
317 0 2 0.5897 6.696631330658298 15.324995967018756 0.23772541781752005 0 0 0
321 0 2 0.5897 8.777506821635283 18.346589889070277 2.8951015981864514 0 0 0
602 0 2 0.5897 5.221513333339437 18.662322787737576 0.3849735704486023 0 0 0
308 0 2 0.5897 7.479628111809395 17.45387552223547 4.487921409525622 0 0 0
560 0 2 0.5897 12.565385559360784 14.501700920159807 2.204472705380967 0 0 0
320 0 2 0.5897 10.367921929673084 18.268423146422865 2.6982748816650015 0 0 0
559 0 1 -1.1794 11.789387542304617 14.927046952171647 1.872142355283895 0 0 0
561 0 2 0.5897 11.662093032708341 14.831567838464272 0.9165229929884708 0 0 0
832 0 1 -1.1794 11.785104957285784 17.349840441917603 2.908883300278523 0 0 0
834 0 2 0.5897 11.80474697059755 16.469197717881144 2.51928776592196 0 0 0
833 0 2 0.5897 12.463029235771662 17.89110441161055 2.450990973829629 0 0 0
319 0 1 -1.1794 9.578544310910305 18.811432438021658 2.533532388901007 0 0 0
389 0 2 0.5897 9.878870806252289 18.598157986987864 0.6710257640789243 0 0 0
179 0 2 0.5897 15.154464205916723 14.630465383275594 2.515569460167988 0 0 0
178 0 1 -1.1794 15.878464235826712 15.088365357409225 2.1016999108282537 0 0 0
180 0 2 0.5897 15.945002283794679 15.94081749186521 2.583095357914777 0 0 0
745 0 1 -1.1794 15.989684477459853 17.86662362712375 2.824110513407185 0 0 0
746 0 2 0.5897 16.886432681654483 18.182370778162547 2.647623255805511 0 0 0
747 0 2 0.5897 15.367565825324661 18.317940148152662 2.2264419349987112 0 0 0
614 0 2 0.5897 16.179272241048857 15.085390216519118 0.5887610176330138 0 0 0
345 0 2 0.5897 0.5125292887951188 18.88726447698155 1.046468839489199 0 0 0
226 0 1 -1.1794 4.576001340345263 19.012712927737834 2.0006100392613897 0 0 0
187 0 1 -1.1794 2.648204207085571 22.953694448677478 1.7775908544943735 0 0 0
189 0 2 0.5897 2.481293113266103 23.014615313253117 0.8053678061083877 0 0 0
694 0 1 -1.1794 0.9698759885224902 21.241163392858226 2.95329596468429 0 0 0
695 0 2 0.5897 0.859495516047543 20.431235798501923 2.4265103910524846 0 0 0
696 0 2 0.5897 1.604223438138537 21.77890326686582 2.47964183795162 0 0 0
266 0 2 0.5897 3.982999205419645 22.10245622740378 2.4785204411263657 0 0 0
228 0 2 0.5897 4.50830655821566 19.813705375303012 2.555126562397784 0 0 0
265 0 1 -1.1794 4.756787212534008 21.837542354954383 3.034992687378642 0 0 0
267 0 2 0.5897 5.5796429920432375 22.108937974920693 2.6264205890955576 0 0 0
817 0 1 -1.1794 7.267267648999587 22.588685408187878 2.3967232393373656 0 0 0
818 0 2 0.5897 8.122799288833338 22.170699721976412 2.5817969583516756 0 0 0
498 0 2 0.5897 7.221987498385979 22.562128805986173 0.8184821713919535 0 0 0
249 0 2 0.5897 4.957436330275342 21.536889998944915 4.55662311005609 0 0 0
61 0 1 -1.1794 11.968211354566868 22.877085257340777 2.108311277860974 0 0 0
62 0 2 0.5897 12.743925902812444 22.408343025774535 2.5000961497825984 0 0 0
397 0 1 -1.1794 9.619419319081082 21.495382409853132 2.7018584945895405 0 0 0
398 0 2 0.5897 9.67973397580592 20.537063658540433 2.546437977001875 0 0 0
399 0 2 0.5897 10.389862124268316 21.909739262993433 2.3086627725416804 0 0 0
425 0 2 0.5897 12.005254725273174 22.91602631972282 0.5097931404654752 0 0 0
591 0 2 0.5897 9.963913205653672 21.625797536854467 4.555070550697288 0 0 0
304 0 1 -1.1794 13.596575072737844 18.96070828078181 2.2200971707200927 0 0 0
305 0 2 0.5897 13.769283213024067 19.029649719655165 1.2821431745428102 0 0 0
729 0 2 0.5897 17.203167476660283 21.703941546813223 2.621135159509438 0 0 0
306 0 2 0.5897 13.707114783030246 19.84769442620422 2.5880409354886296 0 0 0
118 0 1 -1.1794 14.018084046193769 21.463330536334055 3.354750612798696 0 0 0
120 0 2 0.5897 14.791407325881009 21.611905053139125 2.7820268996031747 0 0 0
727 0 1 -1.1794 16.43829257607686 22.136365177224956 2.179199238055575 0 0 0
728 0 2 0.5897 16.79136813023112 22.35183428739487 1.329477132641716 0 0 0
119 0 2 0.5897 14.271377966768062 21.5236823937588 4.29586497240422 0 0 0
487 0 1 -1.1794 3.290155600169206 1.760897886975959 5.731103384260699 0 0 0
488 0 2 0.5897 2.5361986515051544 2.3208932581068407 5.951925320215836 0 0 0
489 0 2 0.5897 3.0255801427703046 0.9367714743192045 6.135386454049621 0 0 0
784 0 1 -1.1794 1.0029997225799607 3.2451861694181834 6.547773873196982 0 0 0
785 0 2 0.5897 0.9037299918995186 3.2228213456123402 7.533114477743349 0 0 0
786 0 2 0.5897 0.26630085626896094 2.8144832623273897 6.093262306148366 1 0 0
83 0 2 0.5897 4.698489106602677 2.4530044680758682 6.205372895316519 0 0 0
846 0 2 0.5897 7.769472375403289 1.5805877241714612 4.749594120674886 0 0 0
82 0 1 -1.1794 5.348855445746354 3.09920136049135 6.556586068326799 0 0 0
84 0 2 0.5897 6.191441285950937 2.819863751014545 6.185200745491406 0 0 0
844 0 1 -1.1794 7.880023838334725 1.8206692245731388 5.673863294299119 0 0 0
845 0 2 0.5897 7.771992509572348 0.9533384618538994 6.062536464853865 0 0 0
275 0 2 0.5897 5.327400290600016 2.915053655349033 8.268568737953883 0 0 0
419 0 2 0.5897 9.275879802150824 2.4954473682054212 6.268155383877026 0 0 0
420 0 2 0.5897 9.875878176719006 3.905535083365336 6.600373564600915 0 0 0
177 0 2 0.5897 9.74251525724237 2.8379546435924414 8.426565954217955 0 0 0
418 0 1 -1.1794 10.051883278390836 2.976077871576286 6.740392889792945 0 0 0
802 0 1 -1.1794 12.206512814633136 1.7612618184288649 5.827904683938039 0 0 0
803 0 2 0.5897 11.409200295742462 2.262174997086452 6.178596216143312 0 0 0
804 0 2 0.5897 12.960288640553971 2.3435008668768935 6.101101556776611 0 0 0
171 0 2 0.5897 12.222610065976873 0.2291870052592193 6.423388142950811 0 0 0
436 0 1 -1.1794 14.638449366310137 2.760989570252389 7.027431881623182 0 0 0
437 0 2 0.5897 14.885999429372436 2.8525623225465266 7.998161235627782 0 0 0
438 0 2 0.5897 15.400072869625186 2.377827828583666 6.572373903094449 0 0 0
658 0 1 -1.1794 16.669171988270513 1.6783425906438898 5.3994973185069925 0 0 0
659 0 2 0.5897 16.546415726568583 0.8339174548391467 5.853676867850024 0 0 0
732 0 2 0.5897 14.561112774311978 4.371442089350462 6.176311821288113 0 0 0
183 0 2 0.5897 0.979006363768619 5.125753082587605 5.866087249764671 0 0 0
10 0 1 -1.1794 2.640789057612768 7.785743179253916 6.796149826649436 0 0 0
11 0 2 0.5897 1.9201620380379478 7.241158515876421 6.389750511157441 0 0 0
12 0 2 0.5897 2.5777298584466384 8.642617505794485 6.356760958403466 0 0 0
650 0 2 0.5897 3.0384485277254636 7.384106761253093 8.52265685537377 0 0 0
687 0 2 0.5897 4.091733158700389 6.3998933868622 6.109283378820317 0 0 0
181 0 1 -1.1794 0.8199893169603653 6.053047012019869 5.7324330664359975 0 0 0
686 0 2 0.5897 4.993322223471711 5.121575018238069 6.219554036852121 0 0 0
685 0 1 -1.1794 4.784203535635488 5.8614654752764075 5.648417112129627 0 0 0
145 0 1 -1.1794 7.251398950441337 6.872095571315137 6.720835075870191 0 0 0
146 0 2 0.5897 6.362881011095263 6.638803513092525 6.492637147739469 0 0 0
147 0 2 0.5897 7.351010983086612 6.8236920375352526 7.6795119472097655 0 0 0
714 0 2 0.5897 7.82469430697581 8.647753990269333 6.133642003030475 0 0 0
165 0 2 0.5897 9.03113451936906 6.541765200457281 6.423068617506445 0 0 0
163 0 1 -1.1794 9.647169587905486 5.9142123108388285 6.134544626601399 0 0 0
164 0 2 0.5897 10.52335395512341 6.278485638249605 6.284111186578583 0 0 0
230 0 2 0.5897 12.145798059513222 8.576314257024288 6.504244453579433 0 0 0
391 0 1 -1.1794 12.101988168396435 6.924033548949055 7.0045306425651175 0 0 0
392 0 2 0.5897 12.149323859851457 6.800420884216603 7.977169849468874 0 0 0
393 0 2 0.5897 12.865196508812847 6.432231564439357 6.608334890948618 0 0 0
229 0 1 -1.1794 11.94593230752607 9.418528011121877 6.146036580903575 0 0 0
731 0 2 0.5897 14.368392981904403 5.353455206175979 4.975951766329742 0 0 0
182 0 2 0.5897 18.04561794986116 6.233942961674485 6.300012603905949 0 0 0
730 0 1 -1.1794 14.405369461215589 5.274284081384222 5.902558272521269 0 0 0
525 0 2 0.5897 16.843329202923215 8.551837878881807 6.500626595076392 0 0 0
541 0 1 -1.1794 16.616053244421906 6.831534416145433 7.083615656254151 0 0 0
542 0 2 0.5897 15.92395423893234 6.213726330122493 6.748909789422235 0 0 0
543 0 2 0.5897 16.604543966170546 6.811685870934247 8.032496386764103 0 0 0
793 0 1 -1.1794 3.0430946085754838 10.303786713660623 5.922278950182373 0 0 0
551 0 2 0.5897 0.8298760944015723 11.301975569099453 7.729849638755442 0 0 0
552 0 2 0.5897 0.6617098838174664 12.123176331746997 6.503155666972151 0 0 0
794 0 2 0.5897 2.298170192801615 10.892587888684211 6.098901670898122 0 0 0
795 0 2 0.5897 3.92013382645118 10.633936717649219 6.14618691658781 0 0 0
550 0 1 -1.1794 0.6281330682457761 11.217497031588863 6.807094849147665 0 0 0
655 0 1 -1.1794 0.6321596962922692 13.68290033893779 5.5681881854327875 0 0 0
656 0 2 0.5897 1.4329633047137618 14.072871014753732 6.016359729925403 0 0 0
712 0 1 -1.1794 7.752928186652042 9.558926961035125 5.848380546587961 0 0 0
713 0 2 0.5897 8.498521830584579 10.017166232651409 6.2276126840211194 0 0 0
577 0 1 -1.1794 5.498948050527679 11.253280484516477 6.479142470573652 0 0 0
578 0 2 0.5897 6.243659673468413 10.766575141706848 6.126510710672838 0 0 0
579 0 2 0.5897 5.597827279872971 12.105201882560312 6.075789037829637 0 0 0
199 0 1 -1.1794 5.3718451731898185 13.722743783306388 5.362287026695969 0 0 0
582 0 2 0.5897 5.992265454613589 11.085035216901389 8.42596020853511 0 0 0
806 0 2 0.5897 9.526756591430948 13.504583404169546 4.653834414214117 0 0 0
805 0 1 -1.1794 9.537402334290546 13.404453431558913 5.63691932620453 0 0 0
807 0 2 0.5897 9.389585756582633 12.476910920097719 5.907950009704981 0 0 0
739 0 1 -1.1794 9.83004997370912 10.853509568079945 6.821429511008499 0 0 0
741 0 2 0.5897 9.816171698016262 10.840694968643124 7.796207764058945 0 0 0
231 0 2 0.5897 12.766336247880238 9.932652864721002 6.363764266261921 0 0 0
740 0 2 0.5897 10.625210142089982 10.377273863418077 6.529661660978544 0 0 0
726 0 2 0.5897 13.344399686024751 13.920284431027738 6.583479739513429 0 0 0
523 0 1 -1.1794 16.656694598431983 9.474756103551861 6.226737846485142 0 0 0
724 0 1 -1.1794 14.09265631541757 13.37772950366245 6.283730870616324 0 0 0
857 0 2 0.5897 14.249289975397739 11.277414851313946 8.662638867880931 0 0 0
524 0 2 0.5897 17.371522693728878 10.111957327235658 6.341494538140462 0 0 0
634 0 1 -1.1794 14.347914941815448 10.796735767428677 6.863032369817152 0 0 0
635 0 2 0.5897 15.209593414531405 10.389605744422616 6.636962650872899 0 0 0
636 0 2 0.5897 14.35385885645699 11.697303606698249 6.437740569191948 0 0 0
725 0 2 0.5897 14.935695481427164 13.922456138071874 6.4877196206286145 0 0 0
18 0 2 0.5897 4.138452150599583 14.314416817481307 6.5019322521376814 0 0 0
16 0 1 -1.1794 3.2444335006158496 14.724171921822538 6.71071287744672 0 0 0
17 0 2 0.5897 3.271084420114588 14.799187652016965 7.698016641589313 0 0 0
238 0 1 -1.1794 2.789200721463504 17.19111593874859 5.507114478371896 0 0 0
239 0 2 0.5897 2.8904003203387503 16.436461147846124 6.130546813936859 0 0 0
341 0 2 0.5897 1.1424562710777268 18.003269510887577 6.365878935811023 0 0 0
240 0 2 0.5897 3.5557490728489713 17.762501407989653 5.684728030608328 0 0 0
340 0 1 -1.1794 0.43407541558999496 18.568553521477423 6.7183185145052375 0 0 0
201 0 2 0.5897 6.147448762144964 14.21311986891277 5.725147725048443 0 0 0
519 0 2 0.5897 8.347657464723484 14.591608895536542 6.266362613714772 0 0 0
378 0 2 0.5897 7.601704122314711 14.911154751669837 8.519576085602912 0 0 0
517 0 1 -1.1794 7.501877719116802 14.889253118141935 6.568191796157315 0 0 0
307 0 1 -1.1794 7.419204116462797 17.452205870014666 5.4438688993018935 0 0 0
518 0 2 0.5897 7.511489288316579 15.820463701809048 6.322410863874863 0 0 0
309 0 2 0.5897 8.070429747276773 18.10737196905731 5.73535546043455 0 0 0
386 0 2 0.5897 5.829637337781838 18.24087933579385 5.8463871374670004 0 0 0
102 0 2 0.5897 5.297109125072421 18.751682401924757 8.027986749507583 0 0 0
385 0 1 -1.1794 5.063200143353927 18.80185368227125 6.118800813894292 0 0 0
642 0 2 0.5897 11.139307693270002 14.212366622598273 6.613614719306001 0 0 0
645 0 2 0.5897 11.91547694084808 17.476080398757816 4.580407918230866 0 0 0
640 0 1 -1.1794 11.92414993462759 14.721252353785944 7.002294753820326 0 0 0
641 0 2 0.5897 11.749943838370786 14.916265140633975 7.930218911081151 0 0 0
643 0 1 -1.1794 11.887205160418166 17.450627305478424 5.606483185839364 0 0 0
644 0 2 0.5897 11.83015340921749 16.52977366116617 5.93778168261187 0 0 0
303 0 2 0.5897 10.267358051872451 18.75894692132644 5.947812382506939 0 0 0
734 0 2 0.5897 9.919418269737086 18.77432360329051 8.199750263194828 0 0 0
348 0 2 0.5897 13.08796597632838 18.42759423109014 6.334230939674505 0 0 0
657 0 2 0.5897 17.874444823797916 14.209512692550039 5.967281121197937 0 0 0
564 0 2 0.5897 16.15075337509424 17.666179576022937 4.839350877658182 0 0 0
205 0 1 -1.1794 16.49668422130116 14.95280882857348 6.688599200005835 0 0 0
206 0 2 0.5897 16.391535602638882 15.846154381731507 6.367106409342977 0 0 0
207 0 2 0.5897 16.425009336556755 15.020630878710937 7.66934413774892 0 0 0
562 0 1 -1.1794 16.03308951106154 17.579946949968186 5.815812392043773 0 0 0
563 0 2 0.5897 16.918944802331993 17.8979165126032 6.161486353979329 0 0 0
347 0 2 0.5897 14.663789842980457 18.37591473022308 6.438932857005573 0 0 0
371 0 2 0.5897 14.288141851989579 18.60115711172145 8.42693427175477 0 0 0
342 0 2 0.5897 0.6192478022251752 18.924863720019754 7.62206674631426 0 0 0
413 0 2 0.5897 0.6721097082617787 21.095629618630394 4.591289266265754 0 0 0
700 0 1 -1.1794 2.744395536198861 22.795247234827873 6.739087590638655 0 0 0
701 0 2 0.5897 2.702433995699715 22.655228996805757 7.7023667109787946 0 0 0
702 0 2 0.5897 2.097095955568531 22.24909544102115 6.285109832809771 0 0 0
414 0 2 0.5897 0.5294541074507111 20.197967918360895 5.814771027046995 0 0 0
412 0 1 -1.1794 0.5315509572994033 21.13963494309967 5.528611509501752 0 0 0
248 0 2 0.5897 4.447909962871575 21.81171231893331 6.024576191292081 0 0 0
247 0 1 -1.1794 5.198759576890341 21.45178983682349 5.474760504435725 0 0 0
31 0 1 -1.1794 7.419549510118217 22.581827269955543 6.588056426951315 0 0 0
32 0 2 0.5897 8.222264713407379 22.198999713592116 6.224564092600984 0 0 0
33 0 2 0.5897 6.728472239633997 22.12624518025357 6.125527094551111 0 0 0
387 0 2 0.5897 5.3118919242088865 19.658519591288666 5.743352951060058 0 0 0
86 0 2 0.5897 7.415934186753403 22.531662970647744 8.409154101767102 0 0 0
301 0 1 -1.1794 9.669163386043488 19.099284576909113 6.606393240178422 0 0 0
169 0 1 -1.1794 12.112391771233135 22.73625837819239 6.680012541036324 0 0 0
170 0 2 0.5897 12.95200792009321 22.33762817516495 6.386629701176139 0 0 0
302 0 2 0.5897 9.74234889949379 20.020749405237524 6.384542550965112 0 0 0
589 0 1 -1.1794 9.980856302798733 21.7209926785793 5.5065000584710635 0 0 0
590 0 2 0.5897 10.6588781159358 22.26693683528277 5.921056870338756 0 0 0
330 0 2 0.5897 12.165242027156264 22.5749925805772 8.46079916523683 0 0 0
346 0 1 -1.1794 13.8638730505405 18.86707449585912 6.771930955797568 0 0 0
534 0 2 0.5897 14.349398228540752 20.428955907131808 6.405016631261136 0 0 0
532 0 1 -1.1794 14.323105742517006 21.383368779263005 6.150782428189278 0 0 0
352 0 1 -1.1794 16.582842874256897 22.721020115016767 6.804301992835993 0 0 0
353 0 2 0.5897 17.363921154549082 22.192179067775676 6.518956000304524 0 0 0
354 0 2 0.5897 16.606663300258525 22.796709738185147 7.805137674858786 0 0 0
533 0 2 0.5897 15.190122777637356 21.756886900221502 6.495824985220839 0 0 0
34 0 1 -1.1794 0.681541222920237 3.3592103882385884 9.463679319361319 0 0 0
36 0 2 0.5897 1.508979298555338 2.8714484574911383 9.682464445619267 0 0 0
167 0 2 0.5897 3.0181375587283528 1.736003694819869 11.958943954566154 0 0 0
673 0 1 -1.1794 2.8381118905238227 1.7599291369213992 9.976171084420704 0 0 0
674 0 2 0.5897 3.6266345084836407 2.19862325802953 9.606420312922232 0 0 0
675 0 2 0.5897 2.860766906935492 0.8242331290044229 9.721449761442864 0 0 0
35 0 2 0.5897 0.9321763991865561 4.275858315322104 9.662856455203542 0 0 0
166 0 1 -1.1794 3.0418855874471835 1.6234151915539943 12.915176655975817 0 0 0
274 0 1 -1.1794 5.210863046812605 3.0874192528400775 9.241652857922837 0 0 0
276 0 2 0.5897 5.961160445714115 2.6865216801185885 9.695712084259855 0 0 0
355 0 1 -1.1794 7.479356693045978 1.8147173997258161 10.233672154235236 0 0 0
356 0 2 0.5897 7.451606035075389 0.8823220562810286 9.882904743035787 0 0 0
357 0 2 0.5897 7.414071035130595 1.6852724211886088 11.205219181830433 0 0 0
678 0 2 0.5897 5.460812444543144 4.672389555436419 9.657124725610206 0 0 0
592 0 1 -1.1794 7.293811933289246 1.7910416496721684 12.876111782443052 0 0 0
593 0 2 0.5897 7.356012459882816 0.840097657377133 13.110999150687743 0 0 0
594 0 2 0.5897 8.221270203599351 2.123946347152062 13.035187634299575 0 0 0
762 0 2 0.5897 5.281845541169356 4.605402052962687 13.015000140405322 0 0 0
176 0 2 0.5897 9.185855111603587 2.3808711440595527 9.826987249010507 0 0 0
175 0 1 -1.1794 9.923636552518762 2.7530139461572674 9.397778365630462 0 0 0
514 0 1 -1.1794 12.300219064965717 1.8171182624805926 10.653574480145616 0 0 0
515 0 2 0.5897 12.235253890185186 1.794590992672316 11.610992205628742 0 0 0
516 0 2 0.5897 11.51933973690741 2.2567907132571854 10.309169708617814 0 0 0
757 0 1 -1.1794 12.391625967884055 1.73724484665527 13.271221233109701 0 0 0
705 0 2 0.5897 9.91984447435106 4.440224681890288 10.241077716623874 0 0 0
849 0 2 0.5897 13.99099746536176 2.0520787032297703 10.185741070036428 0 0 0
847 0 1 -1.1794 14.789814472760368 2.6149468149764656 9.879391636802415 0 0 0
652 0 1 -1.1794 17.04777248528378 1.72163436411639 10.876090365389121 0 0 0
653 0 2 0.5897 16.885445820205383 1.8966731574549713 11.838247287365972 0 0 0
654 0 2 0.5897 17.77956703014486 2.349611555770748 10.568102405956015 0 0 0
848 0 2 0.5897 15.63255275912107 2.312639709886357 10.249538869179146 0 0 0
545 0 2 0.5897 14.717900965227802 4.243702369872554 10.148320605197801 0 0 0
649 0 1 -1.1794 3.0159849862576014 7.298454500477283 9.542259943173047 0 0 0
112 0 1 -1.1794 1.0512829400081363 5.921836128981413 10.646688847715938 0 0 0
113 0 2 0.5897 1.0606634219614264 5.8082146788502715 11.661108385082185 0 0 0
114 0 2 0.5897 1.7622682098194073 6.542781316943095 10.440923319749496 0 0 0
257 0 2 0.5897 3.483166702282251 9.069474358651869 9.777649651706952 0 0 0
651 0 2 0.5897 3.712238781505639 6.635513036549246 9.747191195871004 0 0 0
761 0 2 0.5897 5.485051737812311 5.376749402984527 11.65809368527936 0 0 0
760 0 1 -1.1794 5.461174568025445 5.4786739515352885 12.63345360341337 0 0 0
526 0 1 -1.1794 7.868166769980762 7.080332126765266 9.546983665861129 0 0 0
527 0 2 0.5897 8.110364649444005 7.963793990580245 9.846879959842436 0 0 0
528 0 2 0.5897 8.598811154758904 6.47163977763387 9.78164891598774 0 0 0
676 0 1 -1.1794 5.277662505321642 5.603904182669666 9.906703280046704 0 0 0
677 0 2 0.5897 6.104749293980966 6.097364420918699 9.87639231140732 0 0 0
821 0 2 0.5897 7.807612158866604 9.327227641888603 11.514084181061909 0 0 0
313 0 1 -1.1794 12.010449253597953 6.823019090357219 9.701317235226782 0 0 0
314 0 2 0.5897 11.217048723978396 6.292211553754916 9.882601546498176 0 0 0
315 0 2 0.5897 12.684675931467668 6.2181654252462755 10.086667284908659 0 0 0
444 0 2 0.5897 12.026230077410503 8.56188771181495 9.942585332480135 0 0 0
703 0 1 -1.1794 9.89771318002451 5.335146448110882 10.544943983005776 0 0 0
704 0 2 0.5897 9.659683191628325 5.3302822343369405 11.470237650972432 0 0 0
815 0 2 0.5897 13.357954347673044 6.278097626418842 13.226193069407104 0 0 0
850 0 1 -1.1794 9.518939362298223 5.288424941377067 13.284825532286137 0 0 0
816 0 2 0.5897 14.069987181629395 5.484790939294454 12.098486169020747 0 0 0
544 0 1 -1.1794 14.548521032211722 5.156526496143822 10.341305265987694 0 0 0
814 0 1 -1.1794 14.098782614579575 5.664250453229835 13.069449050161813 0 0 0
622 0 1 -1.1794 16.765174126939826 7.0089448987712615 9.690334325567926 0 0 0
546 0 2 0.5897 15.222876339148911 5.694198096008537 9.963436407871756 0 0 0
623 0 2 0.5897 17.662215540504015 6.787971513674586 9.960506226283576 0 0 0
624 0 2 0.5897 16.710428951659573 7.96697269883473 9.883131435117118 0 0 0
797 0 2 0.5897 3.10760325537895 9.699911210796527 11.900636695852818 0 0 0
796 0 1 -1.1794 3.0930667246333257 9.489599667880416 12.880271819233213 0 0 0
256 0 1 -1.1794 3.509441573319911 9.968859531946494 10.184992433950331 0 0 0
258 0 2 0.5897 4.277731740800674 10.407858856561003 9.743521483264123 0 0 0
13 0 1 -1.1794 1.1502300033090962 11.13687475366168 9.517844733757457 0 0 0
14 0 2 0.5897 1.0532489934884541 11.989403829961892 9.881284919328813 0 0 0
15 0 2 0.5897 2.018860240888438 10.759413645363367 9.77460686517604 0 0 0
767 0 2 0.5897 0.6310889378642092 13.839472213082288 11.37671938365507 0 0 0
766 0 1 -1.1794 0.5923787023409274 13.633239971106475 10.415131923493949 0 0 0
637 0 1 -1.1794 0.9544310313163044 13.427535831720347 13.117265367720313 0 0 0
798 0 2 0.5897 2.264363971857853 9.874978091397875 13.234644764403424 0 0 0
812 0 2 0.5897 3.549651461231449 14.01142198333764 9.896563907506946 0 0 0
813 0 2 0.5897 1.9859952585799796 14.132063773562273 9.703282678973546 0 0 0
820 0 1 -1.1794 7.702836104379699 9.581331483638408 10.561472626144278 0 0 0
580 0 1 -1.1794 5.791389324029237 10.896264185966547 9.360092399174635 0 0 0
454 0 1 -1.1794 5.252342990369823 13.52109062976962 10.52663649339784 0 0 0
456 0 2 0.5897 5.483531129742859 12.634420255702514 10.162569084790752 0 0 0