LAMMPS (29 Sep 2021 - Update 2)
  using 1 OpenMP thread(s) per MPI task
plugin load libdeepmd_lmp.so
Loading plugin: deepmd pair style v2.0 by Han Wang
Loading plugin: compute deeptensor/atom v2.0 by Han Wang
Loading plugin: fix dplr v2.0 by Han Wang
echo both

include		in.partitions
variable        pid world 0
include		in.temp
variable        temperature equal 250
variable        tempDamp equal 0.100
include		in.pressure
variable        pressure equal 1973.846
variable        pressureDamp equal 1.0 # This is 1 ps
include		in.seed
variable        seed world 745823

units           metal
atom_style	full
include		in.box
read_data       water.data
Reading data file ...
  orthogonal box = (0.0000000 0.0000000 0.0000000) to (18.207573 23.629177 22.213196)
  1 by 1 by 1 MPI processor grid
  reading atoms ...
  864 atoms
  reading velocities ...
  864 velocities
Finding 1-2 1-3 1-4 neighbors ...
  special bond factors lj:    0        0        0       
  special bond factors coul:  0        0        0       
     0 = max # of 1-2 neighbors
     0 = max # of 1-3 neighbors
     0 = max # of 1-4 neighbors
     1 = max # of special neighbors
  special bonds CPU = 0.000 seconds
  read_data CPU = 1.119 seconds
include 	in.setup
variable	out_freq equal 500
variable	out_freq2 equal 500

timestep        0.0005

neigh_modify    delay 7 every 1

include         in.deepmd
# This is deepMD model

# create groups ###
#group ox type 2
#group hy type 1

mass 2 15.999
mass 1 1.008

pair_style      deepmd ../graph.pb
pair_coeff      * *

bond_style      none
angle_style     none
dihedral_style  none
improper_style  none
neigh_modify exclude none


neighbor        2.0 bin
neigh_modify    every 10 delay 0 check no

thermo          ${out_freq}
thermo          500
thermo_style 	custom step temp pe etotal epair emol press lx ly lz xy xz yz vol pxx pyy pzz pxy pxz pyz cella cellb cellc cellalpha cellbeta cellgamma


restart 	${out_freq} restart.lmp.${pid} restart2.lmp.${pid}
restart 	500 restart.lmp.${pid} restart2.lmp.${pid}
restart 	500 restart.lmp.0 restart2.lmp.${pid}
restart 	500 restart.lmp.0 restart2.lmp.0


include         in.dump
dump            myDump all atom ${out_freq2} dump.water.${pid}
dump            myDump all atom 500 dump.water.${pid}
dump            myDump all atom 500 dump.water.0
dump            myDump2 all dcd ${out_freq2} dump.dcd
dump            myDump2 all dcd 500 dump.dcd
dump_modify     myDump append yes
dump_modify     myDump2 append yes


timer           timeout 23:50:00 every 1000
New timer settings: style=normal  mode=nosync  timeout=23:50:00

fix             2 all nph aniso ${pressure} ${pressure} ${pressureDamp}
fix             2 all nph aniso 1973.846 ${pressure} ${pressureDamp}
fix             2 all nph aniso 1973.846 1973.846 ${pressureDamp}
fix             2 all nph aniso 1973.846 1973.846 1
fix             3 all temp/csvr ${temperature} ${temperature} ${tempDamp} ${seed}
fix             3 all temp/csvr 250 ${temperature} ${tempDamp} ${seed}
fix             3 all temp/csvr 250 250 ${tempDamp} ${seed}
fix             3 all temp/csvr 250 250 0.1 ${seed}
fix             3 all temp/csvr 250 250 0.1 745823
velocity 	all create ${temperature} ${seed} dist gaussian
velocity 	all create 250 ${seed} dist gaussian
velocity 	all create 250 745823 dist gaussian

run             400000

CITE-CITE-CITE-CITE-CITE-CITE-CITE-CITE-CITE-CITE-CITE-CITE-CITE

Your simulation uses code contributions which should be cited:

- USER-DEEPMD package:

@article{Wang_ComputPhysCommun_2018_v228_p178,
  author = {Wang, Han and Zhang, Linfeng and Han, Jiequn and E, Weinan},
  doi = {10.1016/j.cpc.2018.03.016},
  url = {https://doi.org/10.1016/j.cpc.2018.03.016},
  year = 2018,
  month = {jul},
  publisher = {Elsevier {BV}},
  volume = 228,
  journal = {Comput. Phys. Commun.},
  title = {{DeePMD-kit: A deep learning package for many-body potential energy representation and molecular dynamics}},
  pages = {178--184}
}

CITE-CITE-CITE-CITE-CITE-CITE-CITE-CITE-CITE-CITE-CITE-CITE-CITE

Neighbor list info ...
  update every 10 steps, delay 0 steps, check no
  max neighbors/atom: 2000, page size: 100000
  master list distance cutoff = 8
  ghost atom cutoff = 8
  binsize = 4, bins = 5 6 6
  1 neighbor lists, perpetual/occasional/extra = 1 0 0
  (1) pair deepmd, perpetual
      attributes: full, newton on
      pair build: full/bin
      stencil: full/bin/3d
      bin: standard
Per MPI rank memory allocation (min/avg/max) = 7.189 | 7.189 | 7.189 Mbytes
Step Temp PotEng TotEng E_pair E_mol Press Lx Ly Lz Xy Xz Yz Volume Pxx Pyy Pzz Pxy Pxz Pyz Cella Cellb Cellc CellAlpha CellBeta CellGamma 
       0          250   -169.12462   -141.23674   -169.12462            0   -24499.548    18.207573    23.629177    22.213196            0            0            0    9556.7825   -24843.474    -23966.75   -24688.418    1.2307403    310.87039   -220.59637    18.207573    23.629177    22.213196           90           90           90 
     500    235.79209   -150.65497   -124.35201   -150.65497            0    3641.6651     17.82023    23.084388    21.711105            0            0            0    8931.2775    423.26621    5091.5217    5410.2075   -1119.1647   -110.48384    -245.4543     17.82023    23.084388    21.711105           90           90           90 
    1000    240.81688   -146.40685   -119.54336   -146.40685            0   -21.463676     17.70344    22.968638    21.722606            0            0            0    8832.9306    177.90206   -3019.0619    2776.7688    1002.8184    839.08761   -541.35514     17.70344    22.968638    21.722606           90           90           90 
    1500    247.58318   -148.73804   -121.11976   -148.73804            0    1873.1939    17.892326    23.232334    22.067061            0            0            0    9172.8466    4803.4844      1028.98   -212.88285   -109.83253    1010.6616   -144.04353    17.892326    23.232334    22.067061           90           90           90 
    2000    256.27822   -147.03109   -118.44287   -147.03109            0    1067.6571    17.933793    23.217938    21.992337            0            0            0    9157.2945    2247.0223    1328.7077    -372.7587   -1710.2527    2.0313665   -593.34633    17.933793    23.217938    21.992337           90           90           90 
    2500    247.61307   -145.82441    -118.2028   -145.82441            0   -98.617377    17.960813    23.246192    21.844525            0            0            0    9120.5372    519.36499    1787.2741   -2602.4912    1064.1888   -587.68731   -402.52934    17.960813    23.246192    21.844525           90           90           90 
    3000    257.13251   -145.77164   -117.08812   -145.77164            0    5267.6493    17.761566    23.177555    21.848604            0            0            0    8994.4074      6417.61    920.57183     8464.766   -3620.7749   -400.64261    1553.2933    17.761566    23.177555    21.848604           90           90           90 
    3500    253.27032   -147.39658   -119.14389   -147.39658            0    1840.9216    17.803317    23.285863    22.079657            0            0            0    9153.4664    562.62243    4371.8869    588.25548   -2142.7138    1061.0479   -735.89508    17.803317    23.285863    22.079657           90           90           90 
    4000    250.71219   -148.11398   -120.14665   -148.11398            0   -3374.6759     18.01528    23.364651     22.18964            0            0            0    9340.0795   -3157.5361   -4698.1375    -2268.354   -2825.3894    -1982.716   -573.85432     18.01528    23.364651     22.18964           90           90           90 
    4500    238.11114   -146.19223   -119.63057   -146.19223            0    5373.4136    17.883182    23.050159    21.765124            0            0            0     8971.806    5095.5474    4137.2913    6887.4022   -2145.3158    2216.7247    1470.0077    17.883182    23.050159    21.765124           90           90           90 
    5000    254.83517   -147.14196   -118.71472   -147.14196            0    848.80233    17.930089     23.14334    21.898421            0            0            0    9087.0154    3800.3934    -867.4073   -386.57913   -409.97002    598.42357   -1800.0963    17.930089     23.14334    21.898421           90           90           90 
    5500    245.57444   -147.46274   -120.06854   -147.46274            0    1600.5675    17.976893    23.211648    22.113648            0            0            0    9227.4353     255.4078    2990.9883    1555.3064   -240.84168   -491.78135    60.881661    17.976893    23.211648    22.113648           90           90           90 
    6000    249.28448   -147.22844   -119.42038   -147.22844            0    4840.1121    17.948991    23.172382    21.976785            0            0            0    9140.6037    1742.4218    2000.8679    10777.047    1387.3475     393.2962   -779.50506    17.948991    23.172382    21.976785           90           90           90 
    6500    250.93961    -148.1107   -120.11801    -148.1107            0    709.03533    17.898215    23.236615    21.931159            0            0            0    9121.0358    342.40473   -500.15126    2284.8525    1652.5323   -570.72538    1046.3144    17.898215    23.236615    21.931159           90           90           90 
    7000    254.86698   -145.99261   -117.56182   -145.99261            0    1651.2453    17.819812    23.301731    21.930787            0            0            0    9106.3748    1536.6972    1779.3226    1637.7161   -805.35263    440.65919   -564.45468    17.819812    23.301731    21.930787           90           90           90 
    7500    253.85728   -146.58228   -118.26412   -146.58228            0    1363.4615     17.97617    23.467491    22.071973            0            0            0    9311.1853    1600.2541       138.42    2351.7103     134.6993   -913.71881     1838.743     17.97617    23.467491    22.071973           90           90           90 
    8000    252.07514   -147.39026    -119.2709   -147.39026            0    2979.4555    17.947656    23.186715    21.950917            0            0            0    9134.8121    1961.2325    4361.3839    2615.7503    2051.2956   -187.52227    683.69088    17.947656    23.186715    21.950917           90           90           90 
    8500    245.38957   -146.75798    -119.3844   -146.75798            0    2049.6267    17.920849    23.046182     21.93703            0            0            0    9060.1504    3198.5355    3701.9556   -751.61109    364.41792    2588.2033   -36.175169    17.920849    23.046182     21.93703           90           90           90 
    9000    260.41121   -146.21673   -117.16747   -146.21673            0    2648.1447     17.99944    23.183003    22.077582            0            0            0     9212.557    1341.3897     1742.222    4860.8225   -1160.4681   -956.79783   -2489.9848     17.99944    23.183003    22.077582           90           90           90 
    9500    251.81094   -145.94055   -117.85067   -145.94055            0    1004.0554    17.972365    23.227941    21.990627            0            0            0    9180.2297    1786.8262    3625.2434   -2399.9034    3864.2907    302.15226    458.93039    17.972365    23.227941    21.990627           90           90           90 
   10000    250.62458   -145.52942   -117.57187   -145.52942            0    3153.4131    17.938957    23.380272    21.853465            0            0            0    9165.7295    1286.3615    5175.7257    2998.1522     -221.264   -1032.1096   -836.59366    17.938957    23.380272    21.853465           90           90           90 
   10500    267.00316   -145.54339   -115.75879   -145.54339            0    3893.1277    17.796669    23.480835    21.963905            0            0            0    9178.2908    3749.0144    4038.8753    3891.4933    193.86889   -1894.9024    863.59856    17.796669    23.480835    21.963905           90           90           90 
   11000    257.60438   -146.36269   -117.62653   -146.36269            0    1078.4088    17.741028    23.329272    22.163279            0            0            0    9173.0546     1430.643    842.72212    961.86114   -1812.0609    194.90763   -178.91333    17.741028    23.329272    22.163279           90           90           90 
   11500      255.497   -147.38283   -118.88176   -147.38283            0    1827.3692    17.976219    23.089476     22.19053            0            0            0    9210.4341     1415.862    691.94802    3374.2975   -325.00127     45.01633   -2287.3697    17.976219    23.089476     22.19053           90           90           90 
   12000    257.94893    -146.6046   -117.83001    -146.6046            0    5002.2523     18.10042    22.940436    21.806668            0            0            0    9054.8155    4393.7447    7054.8638    3558.1483    -578.1301     353.3042    785.51614     18.10042    22.940436    21.806668           90           90           90 
   12500    257.49905   -145.81246   -117.08805   -145.81246            0    -407.2988    18.162801    23.260472    21.840973            0            0            0    9227.2722    2354.8275    1712.4495   -5289.1734    1701.0684    1562.2269    -382.8628    18.162801    23.260472    21.840973           90           90           90 
   13000     262.8342   -145.92641   -116.60686   -145.92641            0    1527.1443    17.853929    23.273878    21.967625            0            0            0    9128.2112    2988.3397    743.42875    849.66433   -1074.6813   -524.23052    842.55316    17.853929    23.273878    21.967625           90           90           90 
   13500    255.30796   -147.68944   -119.20945   -147.68944            0    5078.3133    17.737879    23.293686    22.172207            0            0            0    9161.1254    6332.0628    4969.3183    3933.5587    1502.3521    282.08994   -357.49547    17.737879    23.293686    22.172207           90           90           90 
   14000    225.20178   -144.69531   -119.57372   -144.69531            0   -1822.8978     17.83404      23.3124    22.139272            0            0            0    9204.4973   -735.08198   -2353.1405   -2380.4709    -1996.709    762.05292   -600.99855     17.83404      23.3124    22.139272           90           90           90 
   14500    241.30816   -146.92894   -120.01066   -146.92894            0    1918.6531    17.990391    23.269302    21.873528            0            0            0    9156.7803    1170.5507    2154.9586    2430.4499    1328.2802    939.62693    269.81618    17.990391    23.269302    21.873528           90           90           90 
   15000    247.35415   -146.17496   -118.58223   -146.17496            0     1929.949    18.045299    23.221426    21.830192            0            0            0    9147.6712      2590.06    924.34787    2275.4392    2019.1358   -992.31782    1240.8351    18.045299    23.221426    21.830192           90           90           90 
   15500     257.1301   -147.29004   -118.60679   -147.29004            0    128.49023    17.952898    23.206008    22.110923            0            0            0    9211.7443   -909.80886    1649.7987   -354.51916    1657.1923    2166.7891    391.12247    17.952898    23.206008    22.110923           90           90           90 
   16000    248.11043   -146.39199    -118.7149   -146.39199            0    1978.2193     17.75286    23.197573    22.192027            0            0            0    9139.1928    2515.1941    1798.8922    1620.5716   -511.36868   -3.2092333   -1111.1256     17.75286    23.197573    22.192027           90           90           90 
   16500    254.83662   -146.98162   -118.55421   -146.98162            0    3795.7922    17.859529    23.361066    21.992226            0            0            0    9175.5446     3439.463    4891.3938    3056.5196   -455.19115    -1899.553   -1081.3788    17.859529    23.361066    21.992226           90           90           90 
   17000    239.80271   -145.13274   -118.38239   -145.13274            0    3036.5982      18.0691    23.345396    21.723262            0            0            0    9163.5301    34.236202    2634.9292    6440.6291    1393.4917   -1504.2618    113.39462      18.0691    23.345396    21.723262           90           90           90 
   17500    247.15501   -146.39828   -118.82777   -146.39828            0   -1588.5137    18.125651    23.097951     21.92906            0            0            0    9180.9384   -1311.8751   -3384.3882   -69.277705    103.94257    417.93725    -83.62736    18.125651    23.097951     21.92906           90           90           90 
   18000    244.07157   -147.11883   -119.89228   -147.11883            0    771.28892    17.999463    23.028898    22.252061            0            0            0     9223.653    1162.0369    3285.3234   -2133.4935   -1998.9538    1207.2688    1114.0605    17.999463    23.028898    22.252061           90           90           90 
   18500    247.12709   -146.84979   -119.28239   -146.84979            0     801.4907    17.823783    23.161246    22.015087            0            0            0    9088.2906    126.30131    33.134958    2245.0358   -459.00495   -257.67309    -2937.074    17.823783    23.161246    22.015087           90           90           90 
   19000    252.47115   -147.70665   -119.54311   -147.70665            0    1009.2633    17.915197    23.475754    21.932895            0            0            0    9224.3785    2368.5857   -1278.2382    1937.4424    1015.2827   -384.12022    821.44463    17.915197    23.475754    21.932895           90           90           90 
   19500    254.32441   -147.26314   -118.89287   -147.26314            0    2905.3016    17.942503    23.358366    21.928407            0            0            0     9190.361    4658.5459   -386.87534    4444.2341     1731.246   -225.07319    450.85368    17.942503    23.358366    21.928407           90           90           90 
   20000    247.73006   -147.59132   -119.95666   -147.59132            0    1297.3981    17.958352    23.106068    22.024138            0            0            0    9138.8479    351.76231    4856.0603   -1315.6284    61.085199    1770.9419   -801.47583    17.958352    23.106068    22.024138           90           90           90 
   20500    242.12989   -146.83667   -119.82671   -146.83667            0    2169.4248     17.98146    23.059694    22.029188            0            0            0    9134.3363    1738.2781    1286.6445    3483.3517   -1385.1644    52.037204    -1186.754     17.98146    23.059694    22.029188           90           90           90 
   21000    240.18737   -147.28811   -120.49485   -147.28811            0    1750.5239    18.049997      23.2953    22.033679            0            0            0    9264.7239   -1331.6253    4627.4548    1955.7423   -457.78173   -828.78412   -821.08861    18.049997      23.2953    22.033679           90           90           90 
   21500    235.74796   -147.72694    -121.4289   -147.72694            0    2061.7422    17.901252    23.340971    21.843875            0            0            0    9127.0832     3219.722   -1684.3168    4649.8215   -2055.2985   -1513.9528    87.249336    17.901252    23.340971    21.843875           90           90           90 
   22000    249.16612   -147.13258   -119.33773   -147.13258            0    285.94018    17.862033     23.41845    21.951483            0            0            0    9182.3298    1731.8796    112.36805   -986.42705     783.6185   -461.55452    2070.7877    17.862033     23.41845    21.951483           90           90           90 
   22500    248.29374   -147.39332   -119.69578   -147.39332            0    3121.7421    17.845969    23.329384    22.140073            0            0            0    9217.6976    3346.5955    2874.2895    3144.3413    585.07122    352.87949    1726.1551    17.845969    23.329384    22.140073           90           90           90 
   23000     250.6247   -148.20494   -120.24738   -148.20494            0    2995.0315    17.898488    23.101239    22.072057            0            0            0    9126.2934    3659.6474    2351.2695    2974.1775   -904.92217   -1560.7133    1150.7789    17.898488    23.101239    22.072057           90           90           90 
   23500    243.78594   -145.79733   -118.60264   -145.79733            0    1957.7098    18.130227    23.186464    21.919473            0            0            0    9214.4175   -532.99656    2712.5053    3693.6206   -498.01718    3588.1878   -1393.8999    18.130227    23.186464    21.919473           90           90           90 
   24000    259.01612   -145.54993   -116.65629   -145.54993            0    2665.4078    18.027086    23.182704    21.784908            0            0            0    9104.2745    2509.8765    2615.1735    2871.1734   -265.00007    616.19946    30.293449    18.027086    23.182704    21.784908           90           90           90 
   24500    243.14317   -145.85104   -118.72805   -145.85104            0   -1432.0235    17.919023    23.404046    22.161967            0            0            0    9294.2332   -596.17001   -4607.4487    907.54815    1449.2819   -912.61018   -2609.8068    17.919023    23.404046    22.161967           90           90           90 
   25000    268.64181    -147.3716    -117.4042    -147.3716            0    2113.7752    17.708986    23.320506    22.193232            0            0            0    9165.4166    5219.6895    1079.0147    42.621427   -1474.9904   -150.52416    715.18549    17.708986    23.320506    22.193232           90           90           90 
   25500    255.03624   -145.30169   -116.85201   -145.30169            0    2522.2891    17.885929    23.286304    21.933508            0            0            0    9135.2446    1144.7034    3547.1059    2875.0579    1380.6315   -1260.9705   -127.59807    17.885929    23.286304    21.933508           90           90           90 
   26000    265.63458   -146.45063   -116.81869   -146.45063            0    1753.3483    18.104074    23.339399    21.789038            0            0            0    9206.7012    4021.4249   -166.12432    1404.7444    -390.8067    1146.7507    -1338.953    18.104074    23.339399    21.789038           90           90           90 
   26500    244.09614   -146.20115   -118.97185   -146.20115            0   -636.29766    18.080327    23.259737    21.976357            0            0            0    9242.0174   -2387.3644    1149.1363   -670.66489    2000.2961   -1160.1131    1519.0093    18.080327    23.259737    21.976357           90           90           90 
   27000     255.9772   -145.98215   -117.42751   -145.98215            0    4679.9708    17.884854      23.1551     22.18798            0            0            0    9188.6105    6639.5226    4671.7131    2728.6767   -7.9239666   -1677.3857     -1184.95    17.884854      23.1551     22.18798           90           90           90 
   27500    260.11025   -147.12472   -118.10903   -147.12472            0    1771.2516    17.792757    23.187478    22.137723            0            0            0     9133.342     2899.709    2632.4338   -218.38798   -383.50907    761.34442    -167.3264    17.792757    23.187478    22.137723           90           90           90 
   28000    243.53639   -146.50519   -119.33834   -146.50519            0   -1276.7797    17.906578    23.381026    21.915477            0            0            0    9175.4441   -3928.4677   -601.82369    699.95228   -1764.8413   -1519.0954    -2.571664    17.906578    23.381026    21.915477           90           90           90 
   28500    255.86641   -146.38509   -117.84281   -146.38509            0     1783.448    18.027432    23.453732    21.863967            0            0            0    9244.3161   -1234.7059    1309.8333    5275.2167    396.25414    1504.6059     244.9388    18.027432    23.453732    21.863967           90           90           90 
   29000     245.4862   -146.29887   -118.91451   -146.29887            0    1674.5824    17.992283    23.243283    21.989834            0            0            0    9196.1426    2278.9185    3229.9832    -485.1545   -720.01966   -524.41503    1855.2819    17.992283    23.243283    21.989834           90           90           90 
   29500    257.69261    -145.7594    -117.0134    -145.7594            0     3748.525    17.903999    23.087028    22.119959            0            0            0     9143.288     3312.528    1614.0112    6319.0358    433.56039   -989.74245   -1054.4051    17.903999    23.087028    22.119959           90           90           90 
   30000    262.49643   -144.23432   -114.95245   -144.23432            0    1431.2901    17.953133    23.317293    22.065314            0            0            0    9236.9478     1551.041    753.76473    1989.0645    1107.8805   -802.77468    1370.1446    17.953133    23.317293    22.065314           90           90           90 
   30500    257.67308   -146.26464   -117.52082   -146.26464            0     2493.429    17.973816    23.539662    21.863717            0            0            0    9250.4851    3306.4694    72.740486    4101.0772    -171.3265   -60.082602   -281.06579    17.973816    23.539662    21.863717           90           90           90 
   31000    248.42499   -144.99689   -117.28471   -144.99689            0    2239.3166    17.879325    23.412401    21.863163            0            0            0    9151.8748     3793.058    636.49979    2288.3921    703.85112    287.14926    52.278668    17.879325    23.412401    21.863163           90           90           90 
   31500    252.34811   -146.06257   -117.91276   -146.06257            0    432.28643    17.851693    23.080848    22.139559            0            0            0    9122.2114    1220.0208   -806.70049    883.53901   -2416.4223   -635.87386    1282.5407    17.851693    23.080848    22.139559           90           90           90 
   32000    249.19853   -146.17567    -118.3772   -146.17567            0    2757.4873    18.006658    23.089247    22.235285            0            0            0    9244.5458    3224.5369    3541.5079    1506.4173    679.17095     933.9766    2187.3745    18.006658    23.089247    22.235285           90           90           90 
   32500    256.25297   -146.98219   -118.39678   -146.98219            0    2536.6411    18.044515    23.173965    21.830058            0            0            0    9128.5215    2500.2106    715.84002    4393.8726    5120.8452   -837.43569   -1515.1684    18.044515    23.173965    21.830058           90           90           90 
   33000    248.73881   -146.40857   -118.66138   -146.40857            0    1591.6846     18.02616    23.432861    21.872915            0            0            0     9239.218    451.05023   -416.53669    4740.5404   -46.742308   -892.60151    32.006358     18.02616    23.432861    21.872915           90           90           90 
   33500    256.51045   -146.86438   -118.25025   -146.86438            0    2621.7551    17.774025    23.352586    21.983821            0            0            0    9124.8123     941.9321    2140.6697    4782.6635   -960.63533   -1121.5067   -1482.4832    17.774025    23.352586    21.983821           90           90           90 
   34000    240.46898   -147.11553   -120.29085   -147.11553            0    1763.3395    17.776436    23.286309    22.100233            0            0            0    9148.3382    2003.8295    1203.4759    2082.7131    630.52225   -526.11726   -766.13868    17.776436    23.286309    22.100233           90           90           90 
   34500    239.57882   -147.62861   -120.90323   -147.62861            0    3473.5592    17.984577    23.254191    22.046549            0            0            0    9220.2369    679.98754    6528.2592    3212.4308   -359.03781   -1166.4706   -1387.2277    17.984577    23.254191    22.046549           90           90           90 
   35000    234.51893   -147.17963   -121.01869   -147.17963            0    2580.8858    18.062214    23.057834     21.81045            0            0            0    9083.5189    968.80553    4684.0573    2089.7947    1087.4559    2302.6908   -1514.0097    18.062214    23.057834     21.81045           90           90           90 
   35500    247.71231   -147.62071   -119.98803   -147.62071            0    3175.9653    18.111742     23.16885    21.977402            0            0            0    9222.3385    1807.3731    1622.7062    6097.8167   -681.08418   -1468.7053   -1371.2374    18.111742     23.16885    21.977402           90           90           90 
   36000    244.57032   -146.70791   -119.42572   -146.70791            0    1557.3924    17.835349    23.184247    22.109184            0            0            0    9142.1281    2583.1463    1292.2176    796.81316   -701.39334   -1190.2336   -1176.8572    17.835349    23.184247    22.109184           90           90           90 
   36500    255.56964   -147.53183   -119.02265   -147.53183            0     2053.245    17.715412    23.410092    22.130136            0            0            0     9177.797    3637.8181    971.81043    1550.1065    590.78861    583.20919    2163.5132    17.715412    23.410092    22.130136           90           90           90 
   37000    246.95637   -146.41465   -118.86629   -146.41465            0   -575.56317    17.921663    23.598502    21.938638            0            0            0    9278.3854   -1787.7028    922.47492   -861.46158    -949.2991   -44.265207   -1975.3908    17.921663    23.598502    21.938638           90           90           90 
   37500    254.67395   -147.26342   -118.85416   -147.26342            0    5287.0647    17.963211    23.201942    21.724409            0            0            0    9054.3293    2576.5789    5806.6474    7477.9678   -86.195258   -413.54693    1260.7933    17.963211    23.201942    21.724409           90           90           90 
   38000    251.58685   -146.05834   -117.99345   -146.05834            0    2143.6777    18.104585    23.072941    22.077956            0            0            0    9222.5367    2718.6031    3130.8394    581.59062   -895.38309    367.88767   -411.41217    18.104585    23.072941    22.077956           90           90           90 
   38500    255.95905   -147.27898   -118.72636   -147.27898            0    2926.1727    18.023976     23.11456      22.1789            0            0            0    9240.0907    3220.5201    3346.6146    2211.3834   -1299.6758    211.33143    26.067085    18.023976     23.11456      22.1789           90           90           90 
   39000    252.79333   -146.88263   -118.68315   -146.88263            0    3529.2357    17.868145    23.188158    21.922524            0            0            0    9083.1456    3290.3022    1472.3343    5825.0708   -1243.5369   -2023.0329   -1940.7558    17.868145    23.188158    21.922524           90           90           90 
   39500    248.24863   -146.27823   -118.58573   -146.27823            0    988.09048    17.928333    23.399573    21.927539            0            0            0    9198.9391   -226.79923     3722.496   -531.42535   -252.59968    2064.9435    34.842457    17.928333    23.399573    21.927539           90           90           90 
   40000    247.22063   -146.58266   -119.00482   -146.58266            0    2388.1163    17.970253    23.337121    22.050223            0            0            0    9247.2896    1789.0016    2827.7704    2547.5767   -319.73193    -1794.169   -552.07205    17.970253    23.337121    22.050223           90           90           90 
   40500    243.93344   -147.25515   -120.04401   -147.25515            0     2712.485    17.930699    23.181944    22.107426            0            0            0    9189.3594    2827.6311    5795.7074   -485.88348   -741.15234    231.61272   -1332.1401    17.930699    23.181944    22.107426           90           90           90 
   41000    242.44974   -145.83387   -118.78824   -145.83387            0    932.58052    17.914253    23.160179    22.026946            0            0            0    9138.9206   -9.0589184    408.74026    2398.0602    902.94224    642.30677    -750.0353    17.914253    23.160179    22.026946           90           90           90 
   41500    259.71985   -147.39321   -118.42107   -147.39321            0    1769.4758    17.961656    23.405991    21.995148            0            0            0     9246.988   -450.94924    4865.4084    893.96841   -1949.9162   -114.93413     588.1434    17.961656    23.405991    21.995148           90           90           90 
   42000    251.49711   -146.64244   -118.58756   -146.64244            0    2009.2327    17.953669    23.448821    21.972655            0            0            0    9250.3202    2656.6186    2968.6283    402.45111   -1865.4033   -811.34785    1244.2029    17.953669    23.448821    21.972655           90           90           90 
   42500    250.61297   -146.34387   -118.38762   -146.34387            0    3621.2484    17.852388    23.217393    21.992118            0            0            0    9115.4229    4440.2058    3533.7013    2889.8379    2578.6605    144.32834    2102.3069    17.852388    23.217393    21.992118           90           90           90 
   43000    262.75895   -147.15235   -117.84119   -147.15235            0    1244.3161    17.964876    23.121385    22.165308            0            0            0    9206.8665    4131.8758    1440.5259   -1839.4534    1725.9491     -1387.55    983.23465    17.964876    23.121385    22.165308           90           90           90 
   43500    253.13824   -147.19812   -118.96017   -147.19812            0    1048.8226    18.047067    23.108196    22.082763            0            0            0    9209.2886   -838.30172    3263.5391    721.23047    2202.1176     1242.508     1846.562    18.047067    23.108196    22.082763           90           90           90 
   44000    255.59599   -147.58428   -119.07216   -147.58428            0    3915.0539    18.056315    23.341627    21.858517            0            0            0    9212.5729    4009.1961    1151.7083    6584.2574    -113.0592   -2561.5149   -832.69438    18.056315    23.341627    21.858517           90           90           90 
   44500    250.91658   -146.62985   -118.63972   -146.62985            0   -7.8988748    17.914103    23.452837    21.875441            0            0            0    9190.6717    39.510891   -2755.0376    2691.8301    61.116334    1221.6529    836.72809    17.914103    23.452837    21.875441           90           90           90 
   45000    233.02193   -146.43955   -120.44561   -146.43955            0    1547.5941    17.728056    23.264388    22.091162            0            0            0    9111.1106    2459.3849   -639.79671    2823.1943   -707.98381   -1505.0405   -1146.7122    17.728056    23.264388    22.091162           90           90           90 
   45500    246.40907   -147.78281    -120.2955   -147.78281            0    2388.4588    17.887572    23.262124    22.298096            0            0            0    9278.3029    1744.1867    2053.7279    3367.4617    1162.7595   -113.01535    2400.9559    17.887572    23.262124    22.298096           90           90           90 
   46000    247.69153   -147.06541   -119.43505   -147.06541            0    1921.7118    18.056033     23.18984    21.939734            0            0            0    9186.5289    3023.9685    2110.7002     630.4667    540.12165    1451.0009   -1129.3127    18.056033     23.18984    21.939734           90           90           90 
   46500    243.57564   -146.00384   -118.83261   -146.00384            0   -306.01283    18.068186    23.151463    21.799006            0            0            0    9118.6321   -2599.6141    4188.7059   -2507.1304    872.55092   -702.77959    1852.2364    18.068186    23.151463    21.799006           90           90           90 
   47000    247.77588   -146.35875   -118.71898   -146.35875            0    4683.6963    17.985884    23.221259    22.128202            0            0            0    9241.9511    3209.2735    5917.2783    4924.5371   -81.570688   -803.36783    126.44871    17.985884    23.221259    22.128202           90           90           90 
   47500    254.42878   -146.58227   -118.20036   -146.58227            0    2844.3074    17.843455    23.272309    22.155879            0            0            0     9200.415    2706.2447    2528.3493    3298.3282   -3475.0661    1336.6479    1369.6165    17.843455    23.272309    22.155879           90           90           90 
   48000    249.20319   -145.64113   -117.84214   -145.64113            0    1538.8806    17.883348    23.406901    21.958587            0            0            0    9191.7271    3062.1753   -2918.6322    4473.0986    603.28338   -1206.9733    65.385656    17.883348    23.406901    21.958587           90           90           90 
   48500    251.69945    -146.7985   -118.72105    -146.7985            0    3323.1876    17.972598    23.330409     21.87655            0            0            0    9173.0135    3327.8493    3294.7595    3346.9538    499.20084   -233.60242   -222.28696    17.972598    23.330409     21.87655           90           90           90 
   49000    256.05376   -145.56437   -117.00118   -145.56437            0    3824.8996    18.073297    23.110309    22.024109            0            0            0    9199.0184    4153.8189    2903.1023    4417.7776   -1168.1991    521.65041    978.08304    18.073297    23.110309    22.024109           90           90           90 
   49500    267.29613    -144.2369   -114.41961    -144.2369            0    2951.2924    18.077445    23.008411    22.174984            0            0            0    9223.3143    131.64815    4384.7784    4337.4507   -1476.6154    425.75145    -1800.248    18.077445    23.008411    22.174984           90           90           90 
   50000    268.32058   -146.70984   -116.77827   -146.70984            0    4724.3615    17.911638    23.120468    21.970105            0            0            0    9098.3799    3066.3018    5470.1098    5636.6729    2444.9574   -186.18182   -723.03106    17.911638    23.120468    21.970105           90           90           90 
   50500    250.70943   -146.37096   -118.40395   -146.37096            0     1811.991      17.8112    23.590304    21.881702            0            0            0    9194.0703    2509.3016   -550.17053    3476.8419      -150.58   -911.69869    930.39038      17.8112    23.590304    21.881702           90           90           90 
   51000    253.45067    -145.9643   -117.69149    -145.9643            0    558.06719     17.82396    23.648844    21.944796            0            0            0     9250.084    3346.9814    1386.1981    -3058.978    1004.5969   -328.50928    899.23917     17.82396    23.648844    21.944796           90           90           90 
   51500    255.76711    -147.6629   -119.13169    -147.6629            0    4185.7037    17.874493    23.081143    22.037205            0            0            0    9091.7511   -213.68478    7378.6387    5392.1572   -1743.5183   -1845.8778    -356.5644    17.874493    23.081143    22.037205           90           90           90 
   52000    249.36254   -148.32814   -120.51137   -148.32814            0   -172.19534    18.110767    22.873492    22.189346            0            0            0    9192.0807    2513.2018   -3247.7718    217.98391    760.50959    1707.7383    383.47174    18.110767    22.873492    22.189346           90           90           90 
   52500    257.49052   -146.09811   -117.37466   -146.09811            0    1411.0431    18.128418    23.023827    22.013697            0            0            0    9188.1993    375.98783    3041.6686    815.47292    574.98942   -481.02175    1052.6226    18.128418    23.023827    22.013697           90           90           90 
   53000    244.84854    -146.5629   -119.24968    -146.5629            0    -167.6417    17.989327    23.384758    21.891971            0            0            0    9209.4279    2236.7778   -1967.4622   -772.24072   -1644.3081   -866.04137   -284.43468    17.989327    23.384758    21.891971           90           90           90 
   53500    240.26189   -145.75692   -118.95534   -145.75692            0    2423.2155    17.761789    23.468442    21.931406            0            0            0    9141.9202    2565.1898     2689.942    2014.5148   -672.58793   -445.26523   -918.59991    17.761789    23.468442    21.931406           90           90           90 
   54000    252.43635   -146.10082   -117.94116   -146.10082            0    4300.1693    17.770953     23.33246    22.121649            0            0            0    9172.5217    3083.2815    6570.8785    3246.3478    -1600.182   -190.52395   -1509.5067    17.770953     23.33246    22.121649           90           90           90 
   54500    234.02926   -146.96431     -120.858   -146.96431            0   -1740.6837    17.955814    23.212153    22.160682            0            0            0    9236.4194    -46.85302   -5939.3863    764.18804    239.96188   -963.09822    193.71926    17.955814    23.212153    22.160682           90           90           90 
   55000    252.79121   -147.44792   -119.24868   -147.44792            0    2927.4318    18.036896    23.097497    21.956923            0            0            0    9147.4109    885.27356     4154.634    3742.3877   -1623.6617    -800.8229   -1316.8856    18.036896    23.097497    21.956923           90           90           90 
   55500    249.08594    -148.0196   -120.23369    -148.0196            0    581.44686    18.079322    23.240199    21.928569            0            0            0    9213.6623    524.51003   -422.83888    1642.6694    2658.3113     1503.971    540.63859    18.079322    23.240199    21.928569           90           90           90 
   56000    260.47176   -146.66776   -117.61174   -146.66776            0    2736.5958    17.916505    23.291911    21.991715            0            0            0    9177.3545    3738.7795    1975.6638    2495.3441    -746.0934    1248.4033     576.5297    17.916505    23.291911    21.991715           90           90           90 
   56500    269.58883   -147.32221   -117.24917   -147.32221            0    3607.5451    17.798044    23.337644    22.154454            0            0            0    9202.1721    3606.9218    4086.5776     3129.136    2216.0189    1904.0609    551.94943    17.798044    23.337644    22.154454           90           90           90 
   57000    257.66184   -147.05402   -118.31146   -147.05402            0   -535.04051    17.868863    23.380976    22.133307            0            0            0    9247.1064   -806.40735   -555.60309   -243.11108    -1301.214     1519.502    59.939561    17.868863    23.380976    22.133307           90           90           90 
   57500     249.8873   -146.11743   -118.24213   -146.11743            0     3691.308    17.979035    23.214114    21.870846            0            0            0    9128.1778    4622.2353    3734.9123    2716.7764   -1317.3673    505.77048    2119.8268    17.979035    23.214114    21.870846           90           90           90 
   58000    249.53839   -146.18392   -118.34754   -146.18392            0    2908.2709     18.12635    23.168792     21.93221            0            0            0    9210.7747    916.77376    1699.6691    6108.3698    508.28272    1162.4101    1383.1271     18.12635    23.168792     21.93221           90           90           90 
   58500    251.84502   -147.23201   -119.13832   -147.23201            0    619.81502     18.00721     23.10966    22.121202            0            0            0    9205.5279    1217.9831    16.240605    625.22131    -783.0993    873.20753    1249.4195     18.00721     23.10966    22.121202           90           90           90 
   59000    251.52397   -145.52586   -117.46798   -145.52586            0    3204.7273    17.811386    23.282235    22.108803            0            0            0    9168.2745    3686.2441    2981.5885    2946.3494    182.03627   -522.36764   -567.63534    17.811386    23.282235    22.108803           90           90           90 
   59500    249.21132   -146.42883   -118.62893   -146.42883            0    2442.3018    17.814984    23.605868    21.939298            0            0            0    9226.3121   -861.39155    1635.7931    6552.5039   -672.79778    1270.4146    677.17304    17.814984    23.605868    21.939298           90           90           90 
   60000    248.49287   -146.37791   -118.65815   -146.37791            0    150.70717    17.889511    23.522161    21.850004            0            0            0    9194.4805   -894.22077    1761.1848   -414.84249    -147.9387   -850.54487   -441.22041    17.889511    23.522161    21.850004           90           90           90 
   60500     247.3751    -146.8622   -119.26713    -146.8622            0    5461.0244    17.991728    23.017915    21.979611            0            0            0    9102.4618    4103.7648    5908.9324     6370.376    795.33394    183.89404   -837.36495    17.991728    23.017915    21.979611           90           90           90 
   61000    245.24714   -146.25634   -118.89865   -146.25634            0   -266.29969    18.146086    22.898281    22.260642            0            0            0    9249.6125   -3668.9618    3910.2425   -1040.1798   -386.47303   -478.28674   -489.40477    18.146086    22.898281    22.260642           90           90           90 
   61500    253.05478   -146.51291   -118.28427   -146.51291            0    816.50893    18.007862     23.07303    21.987319            0            0            0     9135.642    680.04019    1668.4662    101.02037    2044.6631     1014.816     1190.691    18.007862     23.07303    21.987319           90           90           90 
   62000    252.68752   -146.41598   -118.22831   -146.41598            0    5538.2195    17.914073    23.431699    21.877261            0            0            0     9183.137    5522.1727    4651.2034    6441.2824    1291.3627    1912.7207    862.13611    17.914073    23.431699    21.877261           90           90           90 
   62500    252.63654    -146.7261   -118.54411    -146.7261            0    819.15946       17.905    23.494013    22.039306            0            0            0    9271.0611     376.9356    271.10402    1809.4388    406.91117    -974.1315   -1275.4133       17.905    23.494013    22.039306           90           90           90 
   63000    267.10089    -146.2374    -116.4419    -146.2374            0    79.056872    17.835798    23.128445    21.976706            0            0            0    9065.7053   -2690.6735    761.78723    2166.0569   -1132.9755    -823.7118    1005.9358    17.835798    23.128445    21.976706           90           90           90 
   63500     248.2889    -146.7382    -119.0412    -146.7382            0    2775.6857    18.103843    23.202931    22.140594            0            0            0     9300.427    1365.5327    2541.1705    4420.3538    1657.7141    127.62245    158.79936    18.103843    23.202931    22.140594           90           90           90 
   64000    255.65298   -146.49665   -117.97817   -146.49665            0   -120.31094      18.0408    23.198916    22.066341            0            0            0    9235.3596    1710.5239     676.3831   -2747.8398   -2445.7827   -318.85658    -149.8686      18.0408    23.198916    22.066341           90           90           90 
   64500    254.82551   -146.53989   -118.11372   -146.53989            0    358.13959    17.908855    23.229176    21.911679            0            0            0    9115.4322    4000.2277   -2982.2205    56.411519    1138.3661   -1334.0615   -772.95393    17.908855    23.229176    21.911679           90           90           90 
   65000    239.73903   -147.14643   -120.40318   -147.14643            0    543.32946    17.891291    23.384631    22.029482            0            0            0    9216.7217    50.083467   -975.41673    2555.3216   -1578.7255    551.78326   -1486.2242    17.891291    23.384631    22.029482           90           90           90 
   65500    251.36636   -147.52731   -119.48701   -147.52731            0    3294.7944    17.857391    23.264958    22.016969            0            0            0    9146.9815      6245.51    2603.7532      1035.12   -620.21167    1448.9374    1411.8165    17.857391    23.264958    22.016969           90           90           90 
   66000    258.81198    -145.8527   -116.98184    -145.8527            0     1644.975    17.979691    23.181573    22.038995            0            0            0    9185.7987   -2100.7779    4513.6836    2522.0191   -1312.6156    157.69313   -187.36739    17.979691    23.181573    22.038995           90           90           90 
   66500     255.4771   -146.25071   -117.75185   -146.25071            0    2687.5705    18.142738    23.103744    22.014795            0            0            0    9227.8356    1581.4734    3379.7216    3101.5167    1050.7238     735.7314   -428.95861    18.142738    23.103744    22.014795           90           90           90 
   67000    236.39499   -145.33405   -118.96383   -145.33405            0    3652.4538    18.108951    23.094773    21.896027            0            0            0    9157.4028    3475.0849    5336.7663    2145.5103    512.92523     438.7204    169.76682    18.108951    23.094773    21.896027           90           90           90 
   67500    254.63154   -148.00319   -119.59866   -148.00319            0    1730.1745    17.898511    23.318549    22.040208            0            0            0    9198.8621    1998.8625     3092.471    99.190166   -409.66015    706.87251   -227.48246    17.898511    23.318549    22.040208           90           90           90 
   68000    244.38879   -146.64681   -119.38488   -146.64681            0    685.77578    17.695003    23.499222    22.189504            0            0            0    9226.8128    1017.6038    2317.2372   -1277.5137    24.148108   -173.09071   -213.39604    17.695003    23.499222    22.189504           90           90           90 
   68500    247.57921   -146.51422   -118.89638   -146.51422            0    1995.1391     17.75572    23.431027    22.018444            0            0            0    9160.4383    3970.9023    750.81403    1263.7008   -81.330981     214.4003    1189.5542     17.75572    23.431027    22.018444           90           90           90 
   69000    247.70717   -147.79496   -120.16286   -147.79496            0    1786.0569    18.099344    23.229149    21.876398            0            0            0    9197.5455    1071.5838    4009.5665    277.02042   -179.90688   -973.70081    1213.3173    18.099344    23.229149    21.876398           90           90           90 
   69500    238.07216   -146.62179   -120.06448   -146.62179            0    2825.1453    18.184859     22.97554      21.9268            0            0            0    9161.1697    5161.3328    1752.2212    1561.8817    1494.3636   -297.33189   -1925.7787    18.184859     22.97554      21.9268           90           90           90 
   70000     244.3591   -146.50735   -119.24872   -146.50735            0    863.85978    18.066309    22.993891    22.064312            0            0            0    9165.8402   -1247.9399    3426.9811    412.53815   -880.16343   -348.03667    4208.1045    18.066309    22.993891    22.064312           90           90           90 
   70500    243.97543   -146.66769   -119.45186   -146.66769            0    264.23992    17.920586    23.355393    22.115839            0            0            0    9256.4152   -239.76962    765.09935    267.39002   -320.27723    518.91453   -406.44294    17.920586    23.355393    22.115839           90           90           90 
   71000     248.0656   -147.03194   -119.35985   -147.03194            0    3408.7194    17.758461    23.531096    21.929913            0            0            0    9163.9854    5220.5982    3527.7905    1477.7695   -474.05336    1078.9915   -172.55492    17.758461    23.531096    21.929913           90           90           90 
   71500    248.97342   -146.89144   -119.11808   -146.89144            0    1838.8373     17.86973    23.477111    21.894919            0            0            0    9185.5677    1036.5359    2409.3768    2070.5992    743.66071   -179.27182    857.59213     17.86973    23.477111    21.894919           90           90           90 
   72000    256.92489   -144.66431   -116.00395   -144.66431            0    831.21029    18.024897    23.234451    22.109241            0            0            0     9259.319    1201.3546    777.72698    514.54931   -1592.8268    418.36985   -755.31915    18.024897    23.234451    22.109241           90           90           90 
   72500    250.93041   -145.60907   -117.61741   -145.60907            0    3841.7644    18.042693    23.026223    22.174043            0            0            0    9212.3187    2368.7127    7926.4338    1230.1468    458.84309   -1078.7328   -422.76293    18.042693    23.026223    22.174043           90           90           90 
   73000    251.66744   -147.08362   -119.00974   -147.08362            0    317.58559    17.963344    23.169676    21.940859            0            0            0    9131.8921    2002.2948   -399.39267   -650.14533   -414.28034    1319.2201   -1990.3963    17.963344    23.169676    21.940859           90           90           90 
   73500      256.197    -147.1563   -118.57714    -147.1563            0    1090.4056    17.958847    23.562619    21.879114            0            0            0    9258.3105    3224.8438   -673.22718    719.60035   -738.47934    868.18244    -1588.628    17.958847    23.562619    21.879114           90           90           90 
   74000    253.01792     -147.357   -119.13247     -147.357            0    2490.0305    17.819543    23.417987    21.921435            0            0            0    9147.7671    1778.0738     4698.264    993.75371    82.340575    506.50753   -1960.4821    17.819543    23.417987    21.921435           90           90           90 
   74500    255.63238   -147.31036   -118.79418   -147.31036            0    2357.7409    17.904448    23.256464    22.141965            0            0            0    9219.7847    3338.4539    2907.6216    827.14728   -609.26827   -1089.2719   -97.253612    17.904448    23.256464    22.141965           90           90           90 
   75000    247.27241   -145.92898   -118.34537   -145.92898            0   -915.83267    18.073253    23.220736    22.132326            0            0            0    9288.3673   -206.54129    317.31081   -2858.2675   -1882.3585    494.25845   -186.56171    18.073253    23.220736    22.132326           90           90           90 
   75500    246.43755   -147.10499   -119.61451   -147.10499            0    3713.0391    17.999548    23.164475     21.87827            0            0            0    9122.1462    3578.4602    4173.5779    3387.0792    1302.5073    80.176848    475.61319    17.999548    23.164475     21.87827           90           90           90 
   76000    254.29066   -147.24777   -118.88126   -147.24777            0    1685.2356    18.000757    23.282602     22.00993            0            0            0    9224.4601    2520.6516    1941.0794    593.97562   -1481.3731   -431.70109   -154.48213    18.000757    23.282602     22.00993           90           90           90 
   76500    231.84981   -148.26088   -122.39768   -148.26088            0    2573.7577    17.888546    23.270022    22.128512            0            0            0    9211.3662    2566.5979    3712.9485    1441.7266    96.358682   -331.77259    745.64292    17.888546    23.270022    22.128512           90           90           90 
   77000    237.37751   -147.91534   -121.43552   -147.91534            0    2124.4502    17.854618    23.328249    22.044724            0            0            0    9182.0018    3031.5844    4164.8923   -823.12605   -917.13571   -1419.0072   -2054.1381    17.854618    23.328249    22.044724           90           90           90 
   77500    247.98296   -147.09316   -119.43029   -147.09316            0    1576.4579    17.984917    23.365826    21.955934            0            0            0    9226.5962   -1447.4024    1219.5972    4957.1789    759.69591    1789.9617    -550.3487    17.984917    23.365826    21.955934           90           90           90 
   78000    267.70838    -146.5704   -116.70713    -146.5704            0    3760.7116    18.099545    23.183651    21.931581            0            0            0    9202.7883    2981.9152    3993.5847    4306.6351      2116.64    525.70835    81.365223    18.099545    23.183651    21.931581           90           90           90 
   78500    239.22029   -146.95854   -120.27315   -146.95854            0    2308.7759    18.082081    23.023351    22.107714            0            0            0    9203.6645    1486.9438     5555.275   -115.89112   -1.1618918   -660.61184     -432.506    18.082081    23.023351    22.107714           90           90           90 
   79000    241.36248   -147.02998   -120.10564   -147.02998            0    1754.0414    17.898362    23.206829    22.234449            0            0            0    9235.3947    6972.3337   -1680.7381   -29.471396    453.14906    1515.4476   -1734.4677    17.898362    23.206829    22.234449           90           90           90 
   79500    254.23149   -145.83123   -117.47133   -145.83123            0    519.38881    17.731577    23.483696    22.060701            0            0            0    9186.1415    -218.1404   -704.49658    2480.8034    756.69295   -471.54501    2137.7271    17.731577    23.483696    22.060701           90           90           90 
   80000    257.24229   -146.08035   -117.38459   -146.08035            0    595.83853    17.850745    23.638156    21.838527            0            0            0    9214.9564   -1646.8822    705.01817    2729.3796    1160.4439    2464.0109   -2511.6249    17.850745    23.638156    21.838527           90           90           90 
   80500    245.30315    -145.7251   -118.36116    -145.7251            0    4819.7933     18.01862    23.310484    21.857886            0            0            0    9180.8094    5247.8488    4011.7216    5199.8096   -276.32066   -88.223744    23.828363     18.01862    23.310484    21.857886           90           90           90 
   81000    248.05133   -146.89944   -119.22894   -146.89944            0    2197.4427    18.120647    22.928357    22.178664            0            0            0    9214.7171    343.20058    4525.8012    1723.3262    893.57931    1398.7413   -635.01023    18.120647    22.928357    22.178664           90           90           90 
   81500     243.4527   -146.34595   -119.18843   -146.34595            0    2702.0442    18.030761    22.917142     22.18688            0            0            0    9167.9187     2748.891     4639.455    717.78676   -423.14167    823.91515    -934.0294    18.030761    22.917142     22.18688           90           90           90 
   82000    251.33694   -148.36055   -120.32353   -148.36055            0     1718.434    17.976575      23.3227    22.020174            0            0            0    9232.2276   -1484.1884    2348.4306    4291.0598    751.20892    1291.4566    760.02139    17.976575      23.3227    22.020174           90           90           90 
   82500    259.58075   -145.89838   -116.94175   -145.89838            0    3401.7712     17.87443     23.55775    21.902807            0            0            0    9222.8639    4414.4353    3016.0271    2774.8513   -1439.8224   -755.91441   -1415.8682     17.87443     23.55775    21.902807           90           90           90 
   83000    257.80595   -146.46163   -117.70299   -146.46163            0    463.25774    17.888348    23.454991    22.002315            0            0            0    9231.5342    543.08409    1228.7845    -382.0954    -277.0529   -626.34751   -585.61624    17.888348    23.454991    22.002315           90           90           90 
   83500     250.6985   -146.42989    -118.4641   -146.42989            0    965.92602    17.934154    23.199139    22.136081            0            0            0      9209.87    3298.1414    2275.1317   -2675.4951    653.24828    859.19454    149.66336    17.934154    23.199139    22.136081           90           90           90 
   84000    261.68039   -145.74781   -116.55697   -145.74781            0    3164.5565    18.029679    23.148911    22.170559            0            0            0    9253.2692    5140.2802    1880.6998    2472.6894    207.83772    954.21307    608.00883    18.029679    23.148911    22.170559           90           90           90 
   84500    263.31988   -147.29359   -117.91986   -147.29359            0    4698.7326    17.982704    23.189642    22.001073            0            0            0    9174.7216    4034.8341     5707.762    4353.6018    2554.4803    315.27223   0.16858166    17.982704    23.189642    22.001073           90           90           90 
   85000     245.1748   -146.68057   -119.33095   -146.68057            0   -1593.9022    17.994264    23.355013    21.975504            0            0            0    9235.3437    27.403521   -1030.7979   -3778.3121   -2037.7526   -1975.9332    1790.8876    17.994264    23.355013    21.975504           90           90           90 
   85500    251.83789   -145.56531   -117.47241   -145.56531            0    1475.5004    17.955287    23.346983    22.001272            0            0            0    9222.9725   -296.14355    440.72011    4281.9248   -998.78279    158.24795   -1544.0733    17.955287    23.346983    22.001272           90           90           90 
   86000    241.58651   -145.68335   -118.73401   -145.68335            0    3188.5362    17.932556    23.255934    22.056498            0            0            0     9198.405    6728.1751    260.33069    2577.1029   -1021.6094    409.27072   -90.303048    17.932556    23.255934    22.056498           90           90           90 
   86500    245.20562   -147.10195    -119.7489   -147.10195            0    2891.5287    17.927109    23.279804    22.109592            0            0            0    9227.2082    716.21571    4031.7229    3926.6474    2235.3617    561.27893   -500.85528    17.927109    23.279804    22.109592           90           90           90 
   87000    243.10753   -147.51903   -120.40002   -147.51903            0    2076.4772    17.982596    23.448417    21.960905            0            0            0    9260.1102    1181.0557    3751.9947    1296.3812    502.69218    1086.4749   -930.66281    17.982596    23.448417    21.960905           90           90           90 
   87500    249.66131   -146.80557   -118.95547   -146.80557            0    2357.0489    17.930439    23.329908    21.722573            0            0            0     9086.889    2514.6708   -647.26917    5203.7451   -1498.5103   -1185.0789   -657.30992    17.930439    23.329908    21.722573           90           90           90 
   88000    246.68869   -146.31866   -118.80016   -146.31866            0    1009.4939    18.020357    23.256169    22.099364            0            0            0    9261.5001    -1237.804    2022.1276    2244.1582   -1311.2718   -480.63997   -560.97568    18.020357    23.256169    22.099364           90           90           90 
   88500    245.16516   -146.84387   -119.49533   -146.84387            0    4609.3058    17.931492    23.047779    22.309006            0            0            0    9219.8894     7874.386    3015.8433    2937.6881   -1047.7038    1130.9511    1049.1153    17.931492    23.047779    22.309006           90           90           90 
   89000    238.14343   -147.83837   -121.27312   -147.83837            0    1066.2006    17.960576    23.186432    22.047683            0            0            0    9181.5741   -1324.3568    607.67783    3915.2807   -341.33686   -364.96347    2195.3828    17.960576    23.186432    22.047683           90           90           90 
   89500    236.95272   -147.67389   -121.24146   -147.67389            0    1672.3112    18.003595    23.421657    21.806347            0            0            0    9195.1699    3217.8793    2597.5625   -798.50807   -555.55673    393.17396     96.47509    18.003595    23.421657    21.806347           90           90           90 
   90000    247.53137   -148.85281   -121.24031   -148.85281            0    4876.7457    17.873857    23.376484    21.865384            0            0            0     9135.968    5482.5213    5784.2365    3363.4795    -1636.511    1159.7139    1477.3885    17.873857    23.376484    21.865384           90           90           90 
   90500    251.54924   -147.25632   -119.19562   -147.25632            0    1671.1957    17.878764    23.355405    22.241091            0            0            0    9287.1185    2159.9098    1254.3101    1599.3671   -709.34315   -732.56217    1996.2294    17.878764    23.355405    22.241091           90           90           90 
   91000    247.04243   -146.24938   -118.69142   -146.24938            0    3562.7382    17.879847    23.182303     22.13011            0            0            0    9172.8429    3494.8716    2180.9708    5012.3723    921.71871   -218.66285   -1501.7047    17.879847    23.182303     22.13011           90           90           90 
   91500     235.2007   -147.96022   -121.72322   -147.96022            0    1379.7472    17.981476    23.213922    21.934424            0            0            0    9155.8803    610.08626    444.98993    3084.1654   -1852.0516   -901.44039    93.935292    17.981476    23.213922    21.934424           90           90           90 
   92000    236.76291   -145.84325   -119.43199   -145.84325            0   -161.91191    18.020063    23.323855     21.96911            0            0            0    9233.5584   -831.04753    1519.2344   -1173.9226     1029.599   -342.30444    959.06299    18.020063    23.323855     21.96911           90           90           90 
   92500    250.95741   -147.58675   -119.59207   -147.58675            0    2598.9873      17.9625    23.285001    22.036488            0            0            0    9216.9114    2313.2875    3127.5385    2356.1358   -1236.3466    403.84604   -1005.5944      17.9625    23.285001    22.036488           90           90           90 
   93000    251.72312   -147.24933   -119.16923   -147.24933            0    -197.3161    17.915298    23.274105    22.080918            0            0            0    9206.9152     3616.582    978.85632   -5187.3866   -616.67356    578.32991    -1494.158    17.915298    23.274105    22.080918           90           90           90 
   93500    244.31077   -146.69482   -119.44159   -146.69482            0    458.01139    17.908315    23.288006    21.967222            0            0            0    9161.4064   -52.704642   -991.49373    2418.2326     2564.113   -619.39833    54.966113    17.908315    23.288006    21.967222           90           90           90 
   94000    248.53645   -147.40106   -119.67644   -147.40106            0    1339.0842    17.975951    23.376642    21.947852            0            0            0    9222.8688    1784.8922    1127.1385    1105.2218    1159.4013    -644.6206    51.996648    17.975951    23.376642    21.947852           90           90           90 
   94500    250.61737   -147.78173   -119.82498   -147.78173            0    514.91111    17.973178    23.365385    22.058267            0            0            0    9263.3743    -685.1529   -311.36326    2541.2495    183.65228    385.91302   -920.89307    17.973178    23.365385    22.058267           90           90           90 
   95000    233.70903   -147.41296   -121.34237   -147.41296            0    1616.2842    17.826073    23.124615    22.058659            0            0            0    9093.0443    5246.2402    1064.1548   -1461.5425      1035.33   -2247.7424   -972.75904    17.826073    23.124615    22.058659           90           90           90 
   95500    248.02696   -146.92783   -119.26005   -146.92783            0    2163.8856    18.001072     23.25658    22.187437            0            0            0    9288.6237    797.06902    5046.1348    648.45311    270.67413   -51.943458   -506.02965    18.001072     23.25658    22.187437           90           90           90 
   96000    252.54962    -146.1982   -118.02591    -146.1982            0    575.13158    17.997157    23.233662    21.880072            0            0            0    9148.9304   -906.92569    825.66538     1806.655   -1205.5918   -430.82476    1211.4764    17.997157    23.233662    21.880072           90           90           90 
   96500    254.23239   -146.59801     -118.238   -146.59801            0    39.462446    18.047223    23.339235    21.831112            0            0            0    9195.4474    226.86891    662.71611   -771.19768    605.18194    2143.2898    63.118767    18.047223    23.339235    21.831112           90           90           90 
   97000    253.22059   -147.41995   -119.17281   -147.41995            0   -82.210537    17.996447    23.398276    22.113884            0            0            0    9311.8432    59.841976   -2633.8695    2327.3959    227.19694     402.3255    68.864054    17.996447    23.398276    22.113884           90           90           90 
   97500    245.73542   -145.66612   -118.25396   -145.66612            0    5139.4229    17.764647    23.129428    22.060072            0            0            0    9064.1776    4288.3429    3610.5431    7519.3827   -1561.9634    307.84809    446.39037    17.764647    23.129428    22.060072           90           90           90 
   98000    244.44829   -147.68101   -120.41244   -147.68101            0   -290.55851    17.970415    23.274659    22.149846            0            0            0    9264.2902   -1340.8277    -272.6059    741.75807    1104.2554   -1906.2324      862.386    17.970415    23.274659    22.149846           90           90           90 
   98500    254.79373   -147.59667   -119.17404   -147.59667            0    3327.9967    18.001739    23.254472    21.885113            0            0            0    9161.5666    3572.1455    3648.3313    2763.5133   -173.72474   -906.33494    215.44567    18.001739    23.254472    21.885113           90           90           90 
   99000    243.29559   -146.52955   -119.38956   -146.52955            0    2903.0425    18.047607    23.339919    21.891316            0            0            0    9221.2717    3316.8379    1465.8031    3926.4864   -525.83343    723.64096    590.40707    18.047607    23.339919    21.891316           90           90           90 
   99500    261.19163   -146.18907   -117.05275   -146.18907            0     1897.547    17.914339    23.256723    22.073081            0            0            0    9196.2819     3150.812    1938.2014    603.62758   -753.42828   -1259.9695   -40.917044    17.914339    23.256723    22.073081           90           90           90 
  100000    253.51626   -146.46875   -118.18863   -146.46875            0    583.68778    17.847684    23.127628    22.156879            0            0            0    9145.7968   -952.27925    2423.2689    280.07371   -550.06619     727.7716   -42.607655    17.847684    23.127628    22.156879           90           90           90 
  100500     252.4539    -146.5989   -118.43728    -146.5989            0    4176.9759    17.989064    23.226713    22.130555            0            0            0    9246.7396    3845.8675    3900.5404    4784.5198   -171.33668    915.55753    284.80651    17.989064    23.226713    22.130555           90           90           90 
  101000    237.06812   -145.47119   -119.02589   -145.47119            0    3234.4453    18.047336    23.362623    21.764704            0            0            0    9176.7197    3625.9789    2917.0669      3160.29    -671.6861    -609.4629    177.19619    18.047336    23.362623    21.764704           90           90           90 
  101500    241.47819   -145.74871   -118.81145   -145.74871            0    1230.7206    17.957576    23.460651    21.725178            0            0            0    9152.7398    3018.3674    265.99172    407.80254   -723.00748   -477.29341    1474.3514    17.957576    23.460651    21.725178           90           90           90 
  102000    246.96079   -146.80878   -119.25993   -146.80878            0    5624.7465    17.815651    23.307964     22.22376            0            0            0    9228.3397    4859.9891    8524.2077    3490.0427   -807.56021    789.57305   -607.22235    17.815651    23.307964     22.22376           90           90           90 
  102500    241.89518   -146.45692   -119.47315   -146.45692            0    716.65765    17.764788    23.124615    22.411489            0            0            0    9206.7267     2142.204    3063.4325   -3055.6635   -1052.1505    902.95509   -425.32487    17.764788    23.124615    22.411489           90           90           90 
  103000    251.38676   -146.39527    -118.3527   -146.39527            0     2566.167    17.925195    23.128732    21.989315            0            0            0    9116.4846    1022.7112    4408.8858    2266.9038    1514.1388   -401.29917    253.86694    17.925195    23.128732    21.989315           90           90           90 
  103500    247.83882   -147.28276   -119.63596   -147.28276            0    2386.1524    18.144368    23.323015     21.81597            0            0            0    9232.1125    3310.5804    2251.7769       1596.1    1321.7438    636.99245   -65.310537    18.144368    23.323015     21.81597           90           90           90 
  104000    251.82668    -146.6369   -118.54525    -146.6369            0     2327.248    17.984997      23.2498    21.907721            0            0            0    9160.6604    -526.4909    851.31349    6656.9214    1899.0333   -2486.9654   -2210.6414    17.984997      23.2498    21.907721           90           90           90 
  104500    246.71031   -147.08097   -119.56006   -147.08097            0    1941.7027    17.904759    23.225067    22.165105            0            0            0    9217.1205    273.48706     4288.622    1262.9989    92.672485    -1310.297   -2395.1844    17.904759    23.225067    22.165105           90           90           90 
  105000    263.68316   -147.34558   -117.93133   -147.34558            0    3112.0237    17.894263    23.237981    22.112976            0            0            0     9195.162    4464.4148    3429.2857    1442.3706    879.69156   -234.39051    451.06917    17.894263    23.237981    22.112976           90           90           90 
  105500    254.95215   -146.00279    -117.5625   -146.00279            0     2004.491    17.917527    23.285731    21.930682            0            0            0    9149.9786    715.56117     992.8811    4305.0308   -1950.6769   -767.94025    397.75946    17.917527    23.285731    21.930682           90           90           90 
  106000    256.24929   -147.74793   -119.16293   -147.74793            0    817.32741    18.003452    23.340526    21.991326            0            0            0    9240.9756   -953.44221    1492.6111    1912.8133   -2195.7805   -365.96629   -71.302351    18.003452    23.340526    21.991326           90           90           90 
  106500    251.95963   -147.39158   -119.28511   -147.39158            0    3314.0851    17.951409    23.161424    22.026071            0            0            0    9158.0039    5641.4058    1119.1093    3181.7401    1832.5816    1367.0659    131.98913    17.951409    23.161424    22.026071           90           90           90 
  107000    257.05198   -147.97189   -119.29736   -147.97189            0    1894.1017    17.940408    23.149986    22.005284            0            0            0    9139.2385    270.62583    1568.9928    3842.6865     78.75913    1094.1202    1014.4791    17.940408    23.149986    22.005284           90           90           90 
  107500    243.31451   -145.78614   -118.64404   -145.78614            0    1107.2382    17.972171    23.338044    22.023911            0            0            0     9237.606    3459.0523   -1927.5042    1790.1666   -613.22781   -1467.3498   -1119.9365    17.972171    23.338044    22.023911           90           90           90 
  108000    255.04641   -146.59508   -118.14427   -146.59508            0    2900.4706    17.921821    23.400393    22.050278            0            0            0    9247.3938    1481.7393    4031.6109    3188.0616    822.90449   -1677.4959    536.40545    17.921821    23.400393    22.050278           90           90           90 
  108500    254.05374   -145.77483   -117.43476   -145.77483            0    1935.9555    17.875245    23.322307    21.978658            0            0            0    9162.7257      569.966    4469.6217    768.27892     2591.426    106.80208   -1392.7764    17.875245    23.322307    21.978658           90           90           90 
  109000    242.70998   -146.34552   -119.27085   -146.34552            0    956.90288     17.96661    23.297234    22.018792            0            0            0    9216.4564    2126.1232   -667.62276    1412.2082    57.531078   -1561.9717   -1396.4866     17.96661    23.297234    22.018792           90           90           90 
  109500    251.96295   -146.20706   -118.10022   -146.20706            0    2481.9199    17.991151    23.146917    22.002234            0            0            0    9162.6037    2735.8292    3536.3102    1173.6202    -475.9824   -661.33285   -661.43114    17.991151    23.146917    22.002234           90           90           90 
  110000    241.30197    -146.2357    -119.3181    -146.2357            0    2.0004656    18.082628    23.176507    22.083565            0            0            0    9255.0489    2168.9018    623.46839   -2786.3687    2055.0136   -462.53224    1815.3986    18.082628    23.176507    22.083565           90           90           90 
  110500    238.84126   -146.88429   -120.24119   -146.88429            0    2685.2851     17.96374    23.270817    21.982758            0            0            0    9189.4721    2870.6073   -192.13419    5377.3823    514.18848   -169.47266   -239.82804     17.96374    23.270817    21.982758           90           90           90 
  111000    239.44776   -145.54358   -118.83283   -145.54358            0    2391.6078    17.797815    23.383937    21.939135            0            0            0    9130.6946    1558.2528    2328.2781    3288.2925    941.20605   -328.89673   -1012.9386    17.797815    23.383937    21.939135           90           90           90 
  111500    242.15353   -146.15757   -119.14497   -146.15757            0    736.83908    17.880843    23.563147    22.130504            0            0            0    9324.2212    1866.0068    1101.1117   -756.60125   -200.41995   -159.53993    1090.1422    17.880843    23.563147    22.130504           90           90           90 
[...]
  373500    242.78429   -146.82313   -119.74018   -146.82313            0    3382.3396    17.794799    23.279549    21.878815            0            0            0    9063.4061    4690.2369    1576.5664    3880.2155   -1914.2763    1282.7527   -65.861798    17.794799    23.279549    21.878815           90           90           90 
  374000    247.42839   -145.57728   -117.97627   -145.57728            0    1863.5606    17.782799    23.688731    22.199149            0            0            0    9351.4346    1620.3274    1057.5106    2912.8439   -394.58411    186.42701   -676.28501    17.782799    23.688731    22.199149           90           90           90 
  374500    250.46712   -144.46889   -116.52891   -144.46889            0    2186.0927    17.747716    23.396703    22.078105            0            0            0    9167.6686    3703.2884    3379.7838   -524.79415    -957.2819    283.05506   -639.87086    17.747716    23.396703    22.078105           90           90           90 
  375000    249.13179   -144.56581   -116.77478   -144.56581            0     4008.635    18.049947    23.075077    21.977088            0            0            0     9153.543    5495.2757    2627.1301    3903.4991    1930.1159   -1937.7604    1563.4647    18.049947    23.075077    21.977088           90           90           90 
  375500    253.45328   -146.84262   -118.56952   -146.84262            0   -976.03833    18.242719    23.008604    21.955841            0            0            0    9215.7337    533.56562   -2978.3278   -483.35279    1486.2986    354.25049   -103.33574    18.242719    23.008604    21.955841           90           90           90 
  376000    257.37572   -146.63867   -117.92803   -146.63867            0   -136.15309    18.086339    23.206297    21.944817            0            0            0    9210.6118    725.21164    1459.0727   -2592.7436   -949.76571    451.35334    314.71894    18.086339    23.206297    21.944817           90           90           90 
  376500    262.65096   -146.03504   -116.73593   -146.03504            0    4548.9469    17.831139    23.406788    22.038053            0            0            0    9198.0156    4972.4842    5120.8146     3553.542   -181.12099    559.85128    1524.1667    17.831139    23.406788    22.038053           90           90           90 
  377000    243.10835   -147.15934   -120.04024   -147.15934            0    1740.2676    17.799084    23.446845    22.076528            0            0            0    9213.2499    5472.1242    515.30674   -766.62801    1871.2117   -2868.6227   -371.98006    17.799084    23.446845    22.076528           90           90           90 
  377500     244.8793   -146.57294   -119.25629   -146.57294            0    244.24873    17.930008    23.348554    21.988458            0            0            0    9205.2431    191.85099    320.37678    220.51843    518.03965    523.53348   -528.22657    17.930008    23.348554    21.988458           90           90           90 
  378000    250.80017   -146.59446   -118.61732   -146.59446            0    3252.4187    18.055443    23.181685    21.840121            0            0            0    9141.3044    1629.3841    4008.4228    4119.4493    514.95222   -1192.8254    315.60315    18.055443    23.181685    21.840121           90           90           90 
  378500    250.18856   -148.20623   -120.29732   -148.20623            0   -1110.3157    18.156455     23.23849    21.984796            0            0            0    9276.0145   -724.29876   -1403.9162   -1202.7322    -537.8112   -869.90604    431.16343    18.156455     23.23849    21.984796           90           90           90 
  379000    252.02416   -146.53446   -118.42078   -146.53446            0    5024.0873    17.925489    23.207847    22.078471            0            0            0    9184.9092     5455.922    5151.6042    4464.7356   -1019.9327    152.87424   -2307.8779    17.925489    23.207847    22.078471           90           90           90 
  379500    252.76312   -147.77344   -119.57733   -147.77344            0    511.19603    17.814778    23.390126    22.173262            0            0            0    9239.3741    4837.4552    618.52756   -3922.3946    2639.4591   -435.84476   -990.28988    17.814778    23.390126    22.173262           90           90           90 
  380000    250.76654   -147.64273   -119.66934   -147.64273            0    419.19778    17.879541    23.467152    21.957644            0            0            0    9213.0302    1613.0527    1504.0947    -1859.554    -2096.175   -706.54026    678.52299    17.879541    23.467152    21.957644           90           90           90 
  380500    244.89884   -147.70234   -120.38351   -147.70234            0    3329.5599    17.978304    23.346411    21.808007            0            0            0    9153.4505    2524.0658    3038.8258     4425.788    1557.0247   -1023.1068   -542.79449    17.978304    23.346411    21.808007           90           90           90 
  381000    234.38833   -145.16239   -119.01602   -145.16239            0    2677.3237    18.126392    23.295985    22.086936            0            0            0    9326.6979    2697.1912    504.96001      4829.82    2588.7397   -1175.1264    983.14256    18.126392    23.295985    22.086936           90           90           90 
  381500    255.87356   -144.51209   -115.96901   -144.51209            0     1989.401    17.927151    23.074359    22.098886            0            0            0    9141.3706    2793.7839    3451.9908   -277.57176   -1031.0373    224.00028   -1621.1625    17.927151    23.074359    22.098886           90           90           90 
  382000    244.49193   -145.53588   -118.26244   -145.53588            0    1968.2141    17.935038     23.28233    22.156504            0            0            0    9251.8794    915.13715    3668.1647    1321.3404   -331.06227    685.70859     -1936.21    17.935038     23.28233    22.156504           90           90           90 
  382500    262.19501    -145.8901   -116.64185    -145.8901            0    2815.0201    17.967799    23.398844    22.000453            0            0            0    9249.5565    3023.7986    630.62606    4790.6355      487.016   -1503.7251   -1901.1427    17.967799    23.398844    22.000453           90           90           90 
  383000    255.37552   -145.85159   -117.36406   -145.85159            0    2563.1591    17.983093    23.386137    21.820771            0            0            0     9176.836    1760.0273     3098.841    2830.6088    -1304.206    1644.3762    813.49965    17.983093    23.386137    21.820771           90           90           90 
  383500    262.54826   -145.60166   -116.31401   -145.60166            0    4419.1388    17.934883    23.277953    21.972909            0            0            0     9173.412    6418.9824    504.58143    6333.8525   -1205.8899   -97.947072   -3207.7385    17.934883    23.277953    21.972909           90           90           90 
  384000    240.79699   -145.74237    -118.8811   -145.74237            0    -484.5593    17.931098     23.21071    22.325637            0            0            0    9291.7852    1586.1649   -1179.3509   -1860.4919     609.2674   -1930.9857   -255.58154    17.931098     23.21071    22.325637           90           90           90 
  384500    253.73242   -147.40187   -119.09764   -147.40187            0    2808.1739    17.863101    23.039608    22.080606            0            0            0    9087.4689     5226.583    3095.1223    102.81634   -436.91089   -164.15765    874.65564    17.863101    23.039608    22.080606           90           90           90 
  385000    236.84092   -146.58716    -120.1672   -146.58716            0   -1039.9244    18.105553    23.431022    21.887676            0            0            0    9285.4439   -1635.7939   -857.35387   -626.62528    819.43265    1098.4466    393.53994    18.105553    23.431022    21.887676           90           90           90 
  385500    242.34489   -147.31893   -120.28499   -147.31893            0    3842.4087    17.973089    23.405813    21.668548            0            0            0    9115.4115    5111.2315    981.30314    5434.6913   -1769.4954    1950.3275   -1.9852944    17.973089    23.405813    21.668548           90           90           90 
  386000     242.5819   -146.10895   -119.04858   -146.10895            0    2850.6091    17.941959     23.28913    22.008566            0            0            0    9196.3371    1856.1955     1666.503    5029.1288   -203.21207   -37.354116     190.8954    17.941959     23.28913    22.008566           90           90           90 
  386500    249.65409   -145.19452   -117.34523   -145.19452            0   -136.94543    17.917508    23.183224    22.275754            0            0            0    9253.0276    1966.1619    335.68564   -2712.6838    1078.3642   -520.99218   -394.13885    17.917508    23.183224    22.275754           90           90           90 
  387000    257.29813   -147.13977   -118.43777   -147.13977            0    3772.2108    17.901842    23.157195    22.115558            0            0            0    9168.1468    3605.5235    6195.7655    1515.3435   -1946.2477    -677.7862   -131.15571    17.901842    23.157195    22.115558           90           90           90 
  387500    250.85799   -146.44934   -118.46575   -146.44934            0    2524.1812    17.999116    23.403749    21.976018            0            0            0    9257.3275    2674.4956     2980.161    1917.8869    1605.1264   -1210.9498   -288.35786    17.999116    23.403749    21.976018           90           90           90 
  388000    235.59027    -146.8319   -120.55145    -146.8319            0    2629.1509    17.947086    23.345546    21.774287            0            0            0    9123.0891    3930.6099    1995.0996    1961.7432   -2381.5357   -1269.9279    1747.4084    17.947086    23.345546    21.774287           90           90           90 
  388500    232.09367   -146.53868   -120.64828   -146.53868            0    2021.5844    18.013773    23.327437    22.031415            0            0            0    9257.9345    2031.1824    4163.0942   -129.52335   -1123.5157    26.702835    188.19011    18.013773    23.327437    22.031415           90           90           90 
  389000    241.43327   -147.24273   -120.31049   -147.24273            0     1036.726    17.934117    23.206671    22.163101            0            0            0    9224.0866   -84.999565    1945.0336     1250.144   -480.62665    678.13653    1911.9326    17.934117    23.206671    22.163101           90           90           90 
  389500    253.07716   -148.21782   -119.98668   -148.21782            0   -184.30667    17.910899    23.183197    22.099646            0            0            0    9176.4781    1834.5874   -3085.3907    697.88333    2015.0712    942.29066    700.66501    17.910899    23.183197    22.099646           90           90           90 
  390000    246.29266   -148.39841   -120.92409   -148.39841            0    2837.3182    17.962637     23.29469    21.964297            0            0            0    9190.6101    2216.0464    1381.9839    4913.9242    803.48089    961.48641   -1279.8082    17.962637     23.29469    21.964297           90           90           90 
  390500    251.45469    -146.6608   -118.61065    -146.6608            0    961.09384    17.974422    23.312432     21.85979            0            0            0    9159.8529    1731.7694   -449.51879    1601.0309    1433.6806   -63.238982     790.6744    17.974422    23.312432     21.85979           90           90           90 
  391000    263.44578   -147.18724   -117.79947   -147.18724            0    1448.5391    18.010687      23.4158    22.029386            0            0            0    9290.5554    1944.7964   -1286.0814    3686.9024   -1206.5114    1070.1616   -1597.8999    18.010687      23.4158    22.029386           90           90           90 
  391500    266.80183   -146.04525    -116.2831   -146.04525            0    5853.0908     17.80781    23.260152    22.126222            0            0            0    9164.9546    3997.5935    7738.6086    5823.0703   -437.54689   -1327.7638    619.76249     17.80781    23.260152    22.126222           90           90           90 
  392000    239.36862   -147.47965   -120.77772   -147.47965            0   -1571.1826    17.795934    23.149212     22.16399            0            0            0    9130.7179   -2269.1418      3357.15    -5801.556    3566.2472   -596.46728    39.855103    17.795934    23.149212     22.16399           90           90           90 
  392500    239.66946   -147.71513   -120.97964   -147.71513            0    2183.8241    18.044012     23.33706    22.028193            0            0            0    9275.9439    4321.6154    2543.0836   -313.22653    483.88995     -1998.89    121.56472    18.044012     23.33706    22.028193           90           90           90 
  393000     253.8411   -146.38213   -118.06577   -146.38213            0    2916.3806    18.180981    23.408777    21.748482            0            0            0    9256.0351    1688.6249      2519.53    4540.9869    258.47614    91.119991   -865.48414    18.180981    23.408777    21.748482           90           90           90 
  393500    260.30716   -144.60622   -115.56857   -144.60622            0     879.4799    18.007985     23.28339    21.838874            0            0            0    9156.7549    2632.6692    801.83951   -796.06901    938.54198   -825.06205   -359.90988    18.007985     23.28339    21.838874           90           90           90 
  394000    239.67326   -145.83697   -119.10106   -145.83697            0     4222.637     17.81057    23.171725    22.283256            0            0            0    9196.3359    2593.5761    4888.8391    5185.4959   -135.24541   -206.26138    435.59976     17.81057    23.171725    22.283256           90           90           90 
  394500    243.57542   -146.35883   -119.18763   -146.35883            0    -799.8051    17.815462    23.177863    22.338863            0            0            0    9224.2603    1190.1161   -2836.9596   -752.57176    523.89653   -701.65927   -367.27888    17.815462    23.177863    22.338863           90           90           90 
  395000    248.87503   -145.77109    -118.0087   -145.77109            0     1364.088     18.00362    23.346131    21.933581            0            0            0    9219.0107    2358.1413    267.60385    1466.5189   -233.93411   -647.62594   -455.32197     18.00362    23.346131    21.933581           90           90           90 
  395500    247.63579   -146.86806   -119.24391   -146.86806            0    2374.9988    18.131884    23.397355    21.734851            0            0            0    9220.7527     3156.924   -1161.4589    5129.5313   -150.44491   -2319.9267     1132.851    18.131884    23.397355    21.734851           90           90           90 
  396000    237.74779   -146.39622   -119.87509   -146.39622            0    1318.1682    17.981187    23.206853    21.862948            0            0            0    9123.1192    1029.3277    1508.6513    1416.5257     511.9727   -1161.3281   -492.59294    17.981187    23.206853    21.862948           90           90           90 
  396500    240.23648   -147.15066   -120.35191   -147.15066            0    1771.1919    17.931108    23.235993    22.228777            0            0            0    9261.5554    1974.3268    3227.8487    111.40011    -724.3122   -341.91627   -1285.6563    17.931108    23.235993    22.228777           90           90           90 
  397000    251.44561   -147.28259   -119.23346   -147.28259            0    2366.9136    17.842279    23.185359    22.147812            0            0            0    9162.0987   -119.48446    3834.1565    3386.0687    1535.9815    1843.0046    1171.5314    17.842279    23.185359    22.147812           90           90           90 
  397500    251.06441    -146.5976   -118.59099    -146.5976            0    2496.6756    17.923729    23.334549    21.991432            0            0            0    9197.7437    5871.3267    866.15787     752.5422   -882.59713   -474.10649    367.42927    17.923729    23.334549    21.991432           90           90           90 
  398000    241.87565   -146.27933   -119.29774   -146.27933            0     2649.445    18.020381    23.431888    21.869154            0            0            0    9234.2843    3788.9799    1333.9905    2825.3645   -2213.4979   -305.94282   -235.26493    18.020381    23.431888    21.869154           90           90           90 
  398500    261.31518   -146.68842   -117.53832   -146.68842            0    2695.6316    17.952146    23.257782    21.921106            0            0            0    9152.6555    4178.4891    2999.1855     909.2204    1162.9076    613.33085    2332.3306    17.952146    23.257782    21.921106           90           90           90 
  399000    238.47705   -148.38843   -121.78596   -148.38843            0    1283.8751    17.931413    23.130621    22.178188            0            0            0    9198.7299   -342.60227    2716.3302    1477.8973   -181.75048     73.45983    730.96826    17.931413    23.130621    22.178188           90           90           90 
  399500    241.21775   -146.37107   -119.46286   -146.37107            0    938.21246    17.944473    23.179359    22.174502            0            0            0    9223.2929    3068.6063    211.78007     -465.749    391.72506   -620.87208   -1023.8197    17.944473    23.179359    22.174502           90           90           90 
  400000    243.57675   -147.75467   -120.58332   -147.75467            0    2611.5417    17.970163    23.460854    21.820241            0            0            0    9199.3128    4075.4586    3424.4954    334.67109   -1227.0744   -1138.1148   -4.4171454    17.970163    23.460854    21.820241           90           90           90 
Loop time of 2129.62 on 1 procs for 400000 steps with 864 atoms

Performance: 8.114 ns/day, 2.958 hours/ns, 187.827 timesteps/s
74.2% CPU use with 1 MPI tasks x 1 OpenMP threads

MPI task timing breakdown:
Section |  min time  |  avg time  |  max time  |%varavg| %total
---------------------------------------------------------------
Pair    | 1850.6     | 1850.6     | 1850.6     |   0.0 | 86.90
Bond    | 0.072155   | 0.072155   | 0.072155   |   0.0 |  0.00
Neigh   | 246.31     | 246.31     | 246.31     |   0.0 | 11.57
Comm    | 8.2886     | 8.2886     | 8.2886     |   0.0 |  0.39
Output  | 8.0957     | 8.0957     | 8.0957     |   0.0 |  0.38
Modify  | 14.69      | 14.69      | 14.69      |   0.0 |  0.69
Other   |            | 1.615      |            |       |  0.08

Nlocal:        864.000 ave         864 max         864 min
Histogram: 1 0 0 0 0 0 0 0 0 0
Nghost:        3752.00 ave        3752 max        3752 min
Histogram: 1 0 0 0 0 0 0 0 0 0
Neighs:         0.00000 ave           0 max           0 min
Histogram: 1 0 0 0 0 0 0 0 0 0
FullNghs:      171318.0 ave      171318 max      171318 min
Histogram: 1 0 0 0 0 0 0 0 0 0

Total # of neighbors = 171318
Ave neighs/atom = 198.28472
Ave special neighs/atom = 0.0000000
Neighbor list builds = 40000
Dangerous builds not checked

unfix		3
unfix		2

write_data	data.final.${pid}
write_data	data.final.0
System init for write_data ...

write_restart   restart.lmp.${pid}
write_restart   restart.lmp.0
System init for write_restart ...
Unloading pair style deepmd
Unloading compute style deepmd
Unloading fix style deepmd
Total wall time: 0:35:47
