LAMMPS data file via write_data, version 29 Sep 2021, timestep = 2000000

864 atoms
2 atom types

0.3240757152332563 17.88349728476549 xlo xhi
0.38171836837072703 21.06439663163096 ylo yhi
0.39537160616077927 21.817824393838592 zlo zhi

Masses

1 1.008
2 15.999

Atoms # full

415 0 1 -1.1794 1.7105265587797744 1.4950773522707208 2.7778397447445897 0 1 1
416 0 2 0.5897 0.8872973712872108 2.022827198628449 2.7055150457167887 0 1 1
417 0 2 0.5897 2.427467088630896 2.111432710286289 3.0438993218377863 0 1 1
226 0 1 -1.1794 3.0297745975501313 4.094704303923889 3.5347725103133665 0 1 1
521 0 2 0.5897 2.160210316675393 1.047971661272653 0.7082362271677951 0 0 2
228 0 2 0.5897 2.3622223437260614 4.351864716844691 2.8693320040675325 0 1 1
227 0 2 0.5897 2.672264929978284 4.124694547712982 4.437510552144453 0 1 1
374 0 2 0.5897 0.9575445296553832 4.111903296807115 0.44438224687189215 0 1 0
760 0 1 -1.1794 5.188093191362037 1.4575882378305942 2.2933495235344528 1 1 0
761 0 2 0.5897 5.29524256813676 1.5533891826677897 3.2318634704505214 1 1 0
762 0 2 0.5897 5.428168730894136 2.3038227799970024 1.8796509644618788 1 1 0
121 0 1 -1.1794 6.503701433478247 3.7884484599709833 1.373008493674434 0 0 0
737 0 2 0.5897 7.602787960746596 2.6497409079453056 2.0310838947406196 1 1 0
736 0 1 -1.1794 8.416460198108837 2.2307637627032424 2.414264357363784 1 1 0
738 0 2 0.5897 8.63932887247065 1.5271746261114794 1.7777630147087218 1 1 0
749 0 2 0.5897 8.544412942287451 2.189987582989434 4.101164369814711 0 1 1
123 0 2 0.5897 6.118928197040109 4.514236484942059 1.9377260565621184 0 0 0
771 0 2 0.5897 9.080126261708974 3.770085031259095 2.9386998539378038 0 1 0
122 0 2 0.5897 6.888071926626825 4.229665360533118 0.6317231764896207 0 0 0
134 0 2 0.5897 11.157264316839662 1.1119745658986653 3.879161603314262 1 1 0
306 0 2 0.5897 12.343909184012315 1.2465065195090017 1.5108293142203952 0 0 1
304 0 1 -1.1794 12.116233850804187 2.075272554665197 1.947580945843116 0 0 1
305 0 2 0.5897 12.91437292323111 2.5299314171103324 2.1274395719320807 0 0 1
653 0 2 0.5897 10.282751495950947 3.0401402634302115 1.2348953365313604 -1 0 0
288 0 2 0.5897 12.984314762271595 4.122346138113818 4.00052196642017 0 0 0
287 0 2 0.5897 11.56499275336972 4.504123110108195 3.571789866229844 0 0 0
652 0 1 -1.1794 10.249521969277781 3.733251187198434 0.501721662652808 -1 0 0
38 0 2 0.5897 17.1032661850672 2.626203694179426 1.3304326872066754 -1 1 0
37 0 1 -1.1794 16.816401349802806 2.145359677917339 2.1440165300289857 -1 1 0
681 0 2 0.5897 15.316366065504727 3.2842652633507745 2.2138126313029436 -1 0 1
679 0 1 -1.1794 14.60354275020803 3.8543492209609096 2.545820572559279 -1 0 1
680 0 2 0.5897 14.352490430390448 4.43940774414029 1.83351992707985 -1 1 1
39 0 2 0.5897 16.902286443451324 1.1772389673995542 1.9548355770721448 -1 1 0
598 0 1 -1.1794 14.908845972326157 0.9559422305490296 4.594160600635442 0 1 0
551 0 2 0.5897 4.440543083000364 5.317739918866101 3.2048822496555296 0 0 0
538 0 1 -1.1794 1.7913543916620769 5.424051876749115 1.1852491864094836 0 1 0
540 0 2 0.5897 1.2780506058523913 6.223454276008048 1.206952631175782 0 1 0
539 0 2 0.5897 2.6315844575215293 5.526472988787087 0.6711628447025204 0 1 0
424 0 1 -1.1794 4.393923055495719 8.041565968048925 1.7007066642561566 1 0 1
425 0 2 0.5897 3.554179111450653 8.376398730501018 1.2898796716584893 1 0 1
552 0 2 0.5897 4.917111454963742 6.461912438423582 2.3074470014352837 0 0 0
550 0 1 -1.1794 5.261862533655504 5.708719498809034 2.908419509692633 0 0 0
467 0 2 0.5897 6.844022792582993 6.090393370131641 3.3930486613294737 -1 0 0
466 0 1 -1.1794 7.611116047491651 6.346982006704957 3.948300334030326 -1 0 0
468 0 2 0.5897 7.989981494549216 7.131065597945109 3.6320319579393368 -1 0 0
426 0 2 0.5897 5.0988673503045625 8.438132236091743 1.1867601185994006 1 0 1
770 0 2 0.5897 9.140759426409163 5.046104348405267 3.805603359245954 0 1 0
89 0 2 0.5897 9.89744211352987 5.956064239050024 1.8503149121294236 0 0 0
769 0 1 -1.1794 9.686141528844194 4.530836617077697 3.1722908840913284 0 1 0
90 0 2 0.5897 9.814519071161294 7.464451415960118 1.9353638784469327 0 0 0
88 0 1 -1.1794 9.893195458070354 6.781192835898783 1.2821667701576844 0 0 0
692 0 2 0.5897 12.193519374735533 8.360152276955787 2.5322610241611554 -1 0 0
682 0 1 -1.1794 13.409614936485081 7.214409503873421 2.568745159102912 0 0 1
683 0 2 0.5897 13.028519496506021 6.3948012663865486 2.9903331364493035 0 0 1
286 0 1 -1.1794 12.403567898234689 4.8793281359375005 3.9270919183021973 0 0 0
225 0 2 0.5897 17.3385867530391 8.125476432500644 2.285002228727702 0 0 0
350 0 2 0.5897 15.725524981150075 4.949447584956927 3.0348322292348833 0 0 0
223 0 1 -1.1794 17.367497531196395 7.504600907859376 1.581378443538905 0 0 0
224 0 2 0.5897 16.62705716560466 7.7350689957395025 1.0380392125386229 0 0 0
684 0 2 0.5897 13.85434536247427 6.906979939879232 1.7371231526631825 0 0 1
351 0 2 0.5897 16.856547459276864 6.080485509422691 2.7553763212211453 0 0 0
349 0 1 -1.1794 16.53599610008545 5.41520665647535 3.4045695602627557 0 0 0
625 0 1 -1.1794 3.0128725648358348 11.572754841730823 2.0053026962505545 1 0 0
627 0 2 0.5897 2.7120682114776624 12.026472442677376 2.7935646561680914 1 0 0
44 0 2 0.5897 1.0764991987088257 10.351319790410113 4.300245011687705 0 0 0
774 0 2 0.5897 3.2391935494585704 9.9142504743075 4.331581261186945 0 0 1
43 0 1 -1.1794 1.7992474378650285 10.958234263292539 4.609625856768186 0 0 0
626 0 2 0.5897 3.8806301794584037 11.236636467324269 2.18009302895559 1 0 0
772 0 1 -1.1794 3.872552356341991 9.190228764469255 4.433005743622073 0 0 1
773 0 2 0.5897 3.9013445360746646 8.821993007801002 3.524047528831091 0 0 1
341 0 2 0.5897 1.8307900741964453 9.729925592611195 0.7366446316243752 1 0 1
407 0 2 0.5897 0.545686412191058 12.623135420104857 3.6072498421186294 0 0 0
776 0 2 0.5897 2.4636815145250854 12.603294930099278 0.6257729264933553 1 0 1
560 0 2 0.5897 7.558081182488624 9.483875397145718 1.8253449998595461 0 0 0
559 0 1 -1.1794 6.797647729552555 9.521784853330782 1.2942624236150346 0 0 0
461 0 2 0.5897 7.930619392294385 12.232255840406241 1.2826202853587867 0 1 0
318 0 2 0.5897 6.227158595829643 10.897023233157071 2.629905719531062 0 0 0
462 0 2 0.5897 8.845215841671067 12.222795639645398 2.468498040656533 0 1 0
601 0 1 -1.1794 8.934057502931449 8.860869123259418 3.3215306539462355 0 0 1
270 0 2 0.5897 8.530331019494735 12.217583877012855 4.5364526620123256 0 0 1
603 0 2 0.5897 8.762170228996306 9.279042825248759 4.20569084851037 0 0 1
460 0 1 -1.1794 8.582480254733426 11.704915261208702 1.6943294094744505 0 1 0
316 0 1 -1.1794 5.755858535653626 11.676111106167662 2.893434347519344 0 0 0
317 0 2 0.5897 6.049510807295545 12.399185665504783 2.3264509251979693 0 0 0
788 0 2 0.5897 5.486535507121031 12.450260601647638 4.278509076482947 0 0 0
691 0 1 -1.1794 11.62671273339328 9.146463977896738 2.513638172196266 -1 0 0
693 0 2 0.5897 11.82191676498486 9.607854782290367 3.371418151086672 -1 0 0
602 0 2 0.5897 9.79164097772064 9.195122016372656 3.0624115219291856 0 0 1
149 0 2 0.5897 11.41264555301085 10.462014785256715 1.2452310795330992 0 0 1
150 0 2 0.5897 10.182045260391787 11.311171833704229 0.8176018990365133 0 0 1
148 0 1 -1.1794 11.02531631895717 10.880483941884803 0.4951837490254745 0 0 1
98 0 2 0.5897 17.268530962676788 8.78705899240588 4.593990201399667 0 0 1
124 0 1 -1.1794 13.505135836665737 12.180149708050514 2.620557866961321 0 0 0
126 0 2 0.5897 14.035626606449057 12.354978483818496 1.7911020483850324 0 0 0
125 0 2 0.5897 14.043694979335742 11.38131565510699 2.954759538729308 0 0 0
509 0 2 0.5897 14.32211893082542 9.008389158805425 4.002079570796248 0 1 1
97 0 1 -1.1794 17.45381437516608 9.388212084963026 3.8055894021389824 0 0 1
510 0 2 0.5897 14.57817225435033 9.174801420659742 2.4745824143869797 0 0 1
99 0 2 0.5897 16.544207452301354 9.854160294767789 3.875087841739328 0 0 1
508 0 1 -1.1794 14.66935873757821 9.61481227110462 3.3304675162619675 0 1 1
558 0 2 0.5897 17.302355793179174 11.531336374645369 1.7336429906924407 0 0 0
556 0 1 -1.1794 17.359408520166532 10.815607088948775 1.0500007429353704 0 0 0
406 0 1 -1.1794 17.222085421012643 12.609364855017006 3.1753702505001624 -1 0 0
16 0 1 -1.1794 15.118257058587673 9.061482632391868 0.6368199531495476 0 0 1
17 0 2 0.5897 15.747933653787594 9.749990063651817 0.844078851036571 0 0 1
379 0 1 -1.1794 2.187936547371951 14.26816493077617 3.4033601272906946 1 0 0
380 0 2 0.5897 3.0204229760521026 14.31450418517075 2.934469713642973 1 0 0
381 0 2 0.5897 1.7502722504764971 15.083730678617075 3.0481328845943363 1 0 0
115 0 1 -1.1794 4.27568992713341 15.273497449410689 1.72944562853402 0 0 1
116 0 2 0.5897 4.463205645901296 15.91789857207048 0.9950061665520169 0 0 1
117 0 2 0.5897 4.5965976740178895 15.671542782575012 2.584806044244507 0 0 1
142 0 1 -1.1794 4.695918964294721 15.731580147793004 4.6542814008994124 0 0 0
724 0 1 -1.1794 1.4361093777783815 16.722410481239777 2.8896704927714474 0 0 1
269 0 2 0.5897 8.706908578347344 13.736150774686262 4.426030117365123 -1 0 1
852 0 2 0.5897 7.953054980217014 15.040246541628305 1.3482407267533079 1 0 1
850 0 1 -1.1794 8.562263357332577 15.821945992530186 1.331707173933812 1 0 1
13 0 1 -1.1794 6.370160211122546 13.580126569273599 1.0329910711668828 0 0 1
15 0 2 0.5897 5.673954850835373 14.222456218430661 1.1388087652907521 0 0 1
292 0 1 -1.1794 8.789622309026992 15.885972290460558 4.1473690497201225 0 0 0
294 0 2 0.5897 8.734945248067607 15.891338734135623 3.198417918434153 0 0 0
144 0 2 0.5897 4.732010088528109 14.728023247345387 4.645028436297956 0 0 0
293 0 2 0.5897 8.71358232632385 16.794714170928884 4.425361760930269 0 0 0
594 0 2 0.5897 12.129879640908205 13.281160723112833 2.590617461836915 0 1 1
268 0 1 -1.1794 9.120570481536163 12.89683133388661 4.128799252261012 0 0 1
851 0 2 0.5897 9.329055612243929 15.568094054127398 0.7659763447612746 1 0 1
548 0 2 0.5897 12.086385972663878 15.264854260160002 2.764249551340329 0 0 0
593 0 2 0.5897 10.623654391927715 13.40463778071034 3.139005412639676 0 1 1
592 0 1 -1.1794 11.285670334213409 13.737186862314287 2.526956170255554 0 1 1
547 0 1 -1.1794 12.558318765540163 16.132034727406463 2.776645115856744 0 0 0
549 0 2 0.5897 13.329265040647284 16.054289264835518 3.372289562808444 0 0 0
329 0 2 0.5897 10.801958507190543 14.219037388448251 0.9951683471422857 0 0 0
526 0 1 -1.1794 14.978563611858165 12.857858830246519 0.40208012114484654 -1 0 0
408 0 2 0.5897 17.174330815000648 13.512848754889767 2.7712678217611773 -1 0 0
458 0 2 0.5897 16.142103430699308 15.305299707781723 1.1628515037512945 -1 0 0
457 0 1 -1.1794 16.89108499245574 14.916354058607087 1.6312245910833172 -1 0 0
527 0 2 0.5897 15.797368482115782 13.168648062416716 0.8831091641611892 -1 0 0
740 0 2 0.5897 14.870658360071422 15.425957283828359 4.465679984951553 0 0 0
629 0 2 0.5897 15.930838857861415 13.293662652606036 4.26914804736348 0 0 0
459 0 2 0.5897 17.70286825237642 15.251746517399948 1.2440470601773845 -1 0 0
96 0 2 0.5897 14.062765225898868 16.692625645170896 1.3207846484109906 -1 0 1
94 0 1 -1.1794 14.740002918269559 16.475531569588348 0.6353636511918115 -1 0 1
739 0 1 -1.1794 14.748750489791613 16.373025726110257 4.337320236037226 0 0 0
741 0 2 0.5897 15.683874385956113 16.611470005303868 4.116227514883454 0 0 0
810 0 2 0.5897 1.347917592198572 20.78070329004063 4.275588433872467 1 0 0
726 0 2 0.5897 2.1114021484943493 17.379286943011802 2.8466715299949312 0 0 1
660 0 2 0.5897 3.399865552729029 19.365990108088475 1.7013318757607176 0 -1 1
658 0 1 -1.1794 2.5142606767075084 19.446535050027194 2.128974861296652 0 -1 1
659 0 2 0.5897 2.41403412274302 20.35750794152545 2.4988346182046244 0 -1 1
725 0 2 0.5897 0.6304692500289268 17.21598301446433 3.1618931899879734 0 0 1
210 0 2 0.5897 3.4411505183501636 19.87203270343999 4.491446901313459 1 0 0
848 0 2 0.5897 1.7353653830568974 18.890619713636095 0.6629631511533705 0 -1 0
77 0 2 0.5897 7.603744337632619 17.682450390178158 0.9672900320763784 0 0 1
734 0 2 0.5897 5.811906066031457 18.576921412877894 4.215186394809612 0 0 0
733 0 1 -1.1794 6.418656528282347 17.87997932690831 3.9155581771898507 0 0 0
735 0 2 0.5897 5.867102786866548 17.082910376064707 4.052978914898851 0 0 0
78 0 2 0.5897 7.268009148579746 18.28207746701108 2.3448928107788425 0 0 1
76 0 1 -1.1794 7.3866171154167075 18.527643103916542 1.404324365806035 0 0 1
68 0 2 0.5897 5.168948831297626 20.41742019546593 1.4014777748843874 0 -1 1
647 0 2 0.5897 8.311836370581965 20.000078181599868 0.9639178186531939 1 -1 0
273 0 2 0.5897 8.53827292249621 19.459489761020745 4.273251164878587 0 -1 0
67 0 1 -1.1794 4.919510180478554 19.63888165338175 0.8628233847073181 0 -1 1
646 0 1 -1.1794 8.578082713191032 20.835142796217294 0.547810016110786 1 -1 0
69 0 2 0.5897 5.727113954075328 19.128101458154344 0.9991925401390874 1 -1 1
133 0 1 -1.1794 11.232240228204939 20.98246253685791 4.390043229841444 1 0 0
271 0 1 -1.1794 9.310147905307304 18.900765060158882 3.9379095562496373 0 -1 0
272 0 2 0.5897 10.072169864363357 19.430800052596577 3.9667927067669804 0 -1 0
817 0 1 -1.1794 10.824570525065065 18.04098081228163 1.780267257599834 -1 0 0
818 0 2 0.5897 10.156527410310332 18.26681001803815 2.4966329853239277 -1 0 0
819 0 2 0.5897 11.424859082589668 17.402445916536323 2.2428937301140275 -1 0 0
530 0 2 0.5897 12.1364746475313 19.13525568943914 1.158007481962263 -1 -1 0
529 0 1 -1.1794 12.806327228265394 19.728412577093486 0.7346364491510247 -1 -1 0
327 0 2 0.5897 15.189327069411034 20.837397561879552 2.874713976073272 -1 0 0
325 0 1 -1.1794 15.516170973452938 20.293475940952217 2.1326301059898407 -1 0 0
326 0 2 0.5897 14.699107653149706 20.04520340788992 1.6640404457015707 -1 0 0
471 0 2 0.5897 13.648805733742543 18.894809100764963 3.9924231183508736 0 -1 0
541 0 1 -1.1794 17.023116453525805 18.402116547211463 3.801855715128877 0 0 0
542 0 2 0.5897 16.531269378655548 18.98730724440062 3.29409262517345 0 0 0
543 0 2 0.5897 17.812365729185636 18.88063594988477 4.051676108462812 0 0 0
41 0 2 0.5897 3.444557840919946 2.88618282929602 7.179544236704417 1 1 0
40 0 1 -1.1794 3.507540447152373 1.9158076989462876 7.186700271805809 1 1 0
42 0 2 0.5897 4.04125190935876 1.8343235105138638 8.016403293202497 0 1 0
608 0 2 0.5897 0.6348626474337636 4.2121885494608415 5.778512748717207 0 1 1
237 0 2 0.5897 2.069026684948729 4.438049169708412 7.096540676762364 1 1 0
588 0 2 0.5897 2.32408351227546 0.6511995236746898 7.085227518208135 1 0 0
587 0 2 0.5897 0.7083673688853553 0.7993396352558291 7.268632133115961 1 0 0
494 0 2 0.5897 4.839525809302616 0.7409091692357079 5.243616001469755 1 1 1
493 0 1 -1.1794 5.516496665716589 1.3582845845589109 4.985508915224464 1 1 1
495 0 2 0.5897 5.6239642368877405 2.156198577163353 5.616322607376526 1 1 0
282 0 2 0.5897 6.3824285149675015 3.2928979867776276 7.0893735948980545 0 0 0
313 0 1 -1.1794 5.891123451438269 2.515678925489851 8.737117409832448 1 1 0
280 0 1 -1.1794 6.638220646133898 3.5909144968449604 6.211865017738681 0 0 0
750 0 2 0.5897 7.981414743683575 2.6133881243200405 5.343579589335719 0 1 0
314 0 2 0.5897 6.405817215871146 1.6929170384118215 8.76412608198942 1 1 0
748 0 1 -1.1794 8.71358769304122 2.1259727847048273 5.012637070222471 0 1 1
713 0 2 0.5897 8.201638620256105 0.6136992307582085 5.478268480515222 1 1 0
563 0 2 0.5897 9.00752621815749 3.6233303255182494 8.810888878718375 0 0 0
57 0 2 0.5897 10.004746257245278 2.6772932470028925 6.078808007125495 0 0 0
55 0 1 -1.1794 10.746809245773775 2.9997321907734413 6.65245458106976 0 0 0
56 0 2 0.5897 10.369741870134202 3.654912991323436 7.302866912354903 0 0 0
135 0 2 0.5897 11.084342525863262 0.5627576218019442 5.291566982668953 1 1 0
389 0 2 0.5897 12.417918378970452 2.9569883862318345 6.069155680931107 -1 0 0
388 0 1 -1.1794 13.231135838196602 3.0196352102584303 5.496418604255208 -1 0 0
562 0 1 -1.1794 9.382509625025333 4.458479443404663 8.542344046581887 -1 0 0
324 0 2 0.5897 11.267426428031785 0.4491517056438593 7.719306403664277 0 1 0
390 0 2 0.5897 13.844545949593993 3.35868290930964 6.1504052628723755 -1 0 0
607 0 1 -1.1794 17.287178378919382 4.422472256538854 5.798428814448402 -1 1 1
599 0 2 0.5897 14.236577399556351 1.670590418644714 4.8147859435428195 0 1 0
722 0 2 0.5897 16.24210296043394 1.8507954085536447 6.707565038533838 0 0 0
113 0 2 0.5897 15.760010293377716 4.272936119306923 6.886736287152551 0 1 0
112 0 1 -1.1794 15.008962356959927 4.181073855847519 7.503909511869334 0 1 0
721 0 1 -1.1794 16.606821649817608 1.333277275645185 7.398307330907695 0 0 0
723 0 2 0.5897 16.097852644914045 0.4882822661591282 7.33270520537891 0 0 0
668 0 2 0.5897 16.639925896031105 2.524807915170279 8.801240667492054 -1 1 1
442 0 1 -1.1794 1.2170225742525873 4.576337949923285 8.767576148947828 0 0 0
235 0 1 -1.1794 2.5167069447819532 4.52668978696384 6.226724830830516 1 1 0
357 0 2 0.5897 3.4471385908624117 7.719860537058661 5.88491116129299 0 -1 -1
236 0 2 0.5897 2.9336425298751516 5.384994207533246 6.323033131206054 1 1 0
355 0 1 -1.1794 3.553232162711788 7.0290363813894805 6.538971174502026 0 -1 -1
356 0 2 0.5897 3.5300431811701456 7.486478372477297 7.443969028782477 0 -1 -1
411 0 2 0.5897 0.7174543226385401 6.458007468925415 8.422642692191728 2 0 0
410 0 2 0.5897 0.5629473682339479 7.8611381438436085 8.907307010835007 2 0 0
281 0 2 0.5897 6.6570340789303915 4.566843345085004 6.285490317594817 0 0 1
663 0 2 0.5897 6.6136310956181115 6.4753537085570505 5.5652923335966955 1 0 0
661 0 1 -1.1794 6.241183279821847 6.522219691877886 6.468555742769979 1 0 0
662 0 2 0.5897 5.234368941291977 6.4762620077559685 6.371054694372454 1 0 0
353 0 2 0.5897 7.111263544651793 7.961036343121681 7.74123567712182 1 0 1
711 0 2 0.5897 8.583866472196226 6.688945027788695 6.331542252073625 0 1 1
352 0 1 -1.1794 7.523089537988677 8.358508917161995 8.504882782254715 1 0 1
354 0 2 0.5897 8.44203644959193 8.148647081584095 8.478614169449155 1 0 1
261 0 2 0.5897 12.187935102784424 5.359086548555245 8.008975962085291 0 0 1
709 0 1 -1.1794 9.419174302936684 6.910280491187075 6.690749567270862 0 1 1
710 0 2 0.5897 9.531761702600374 6.209486436521184 7.406058646114795 0 1 1
303 0 2 0.5897 12.263217966065804 5.998539108596631 5.352867917616001 0 0 1
301 0 1 -1.1794 12.174055336807632 6.568458039458526 6.122538590245158 0 0 0
302 0 2 0.5897 11.264486103912985 6.7650451947028944 6.113209489848693 0 0 0
259 0 1 -1.1794 11.89971826023345 4.958057354268759 8.850916093316082 0 0 1
624 0 2 0.5897 13.485283875134485 7.7821504160617065 5.8589742183151365 0 0 0
609 0 2 0.5897 17.068012131683382 4.694958791933017 4.894553079685571 -1 1 1
297 0 2 0.5897 16.900852000436647 6.592703625325777 5.244157888442382 0 0 0
295 0 1 -1.1794 16.576661929379775 7.316364587613252 5.7969522144297425 0 0 0
114 0 2 0.5897 15.028147604377375 5.113631388824004 7.84045941920731 0 1 0
296 0 2 0.5897 17.160729731752035 7.307065935557974 6.5810884449262685 0 0 0
409 0 1 -1.1794 17.70359859479551 7.220097364731987 8.317213215842662 1 0 0
396 0 2 0.5897 15.81955994095649 7.236539986764141 8.540840704098214 -1 1 1
395 0 2 0.5897 14.196174912041089 7.476016947913537 8.655331857602466 -1 1 0
394 0 1 -1.1794 14.928860504625124 6.819989238849789 8.510692488883688 -1 1 1
623 0 2 0.5897 15.01202423884487 7.9148646218428675 5.914417291317805 0 0 0
622 0 1 -1.1794 14.205929965998262 8.424884465747784 5.8365001489333235 0 0 0
45 0 2 0.5897 1.7475987381677685 11.020535602588147 5.580588752481734 1 0 0
490 0 1 -1.1794 3.8005074185320464 8.69331926736367 8.657365021334915 0 0 0
759 0 2 0.5897 0.9310621326666965 12.19730623118124 7.642145864641367 1 -1 0
757 0 1 -1.1794 1.753418363484308 12.307154830373454 7.088546478515248 1 -1 0
369 0 2 0.5897 3.4133563982890323 12.166286277471968 7.5945287908156685 1 0 0
367 0 1 -1.1794 4.344434846530277 12.252798953875022 7.5493576504422455 1 0 0
492 0 2 0.5897 4.4876612354948415 9.221372972543664 8.290213520578899 0 0 0
368 0 2 0.5897 4.741642384880296 12.12546498504974 8.413561286795952 1 0 0
651 0 2 0.5897 5.292416508084137 10.79250963791395 6.803923140783741 0 0 0
650 0 2 0.5897 5.027313199073805 9.577845779771453 5.843786669291444 0 0 0
700 0 1 -1.1794 8.04836329519059 10.725257205542203 5.341093151041188 0 0 0
649 0 1 -1.1794 5.58703700751879 9.89235017097523 6.589689794580031 0 0 0
702 0 2 0.5897 7.152685718461775 10.593408216617206 5.728642896597874 0 0 0
701 0 2 0.5897 8.681337415397165 10.395693467171542 6.0174794236386715 0 0 0
131 0 2 0.5897 8.41304661420612 11.712341628095292 7.863759468443103 1 0 0
132 0 2 0.5897 7.532108036390137 10.331622600482657 8.135347190549531 1 0 -1
130 0 1 -1.1794 7.8600388189033366 11.195861623619695 8.466293833433696 1 0 0
789 0 2 0.5897 4.990769965893136 12.785448400618543 5.8099067462630645 0 0 0
299 0 2 0.5897 12.398667588624988 12.661333632407207 5.55023502799222 0 0 1
689 0 2 0.5897 10.138331403360267 9.008661844218196 7.034777808078671 0 1 0
334 0 1 -1.1794 12.13396038273763 10.71551288010567 5.459247727526416 -1 1 1
688 0 1 -1.1794 10.032668827940686 9.931876505291592 7.102186397797449 0 1 0
336 0 2 0.5897 11.34424414876877 10.706123562784741 6.066123510866405 -1 1 1
690 0 2 0.5897 10.3797440695963 10.405934249215743 7.849736433635657 0 1 0
335 0 2 0.5897 12.73855443230321 10.035960092920648 5.880347944315417 -1 1 1
29 0 2 0.5897 11.847778699504067 12.193839277231117 8.657598843348204 0 -1 0
28 0 1 -1.1794 11.66069561669799 11.254565758256723 8.843076702533105 0 -1 0
504 0 2 0.5897 12.887733623018049 9.550026108868058 8.93668545168779 0 -1 0
472 0 1 -1.1794 17.090955436610443 11.524615749837285 8.658458937473311 0 0 0
827 0 2 0.5897 14.624863491522381 10.27150598885846 7.114202589139469 -1 0 0
828 0 2 0.5897 14.21148563652467 11.681286516357186 7.653607325916777 -1 0 0
826 0 1 -1.1794 14.609895037396122 10.835124268388851 7.913438825259943 -1 0 0
474 0 2 0.5897 16.18759219539234 11.285465623315359 8.348191965476524 0 0 0
50 0 2 0.5897 2.292400799014185 14.405068632373373 5.215344366317174 0 1 0
143 0 2 0.5897 4.506660727555245 15.867188034662595 5.64607941311195 0 0 0
758 0 2 0.5897 1.8955195724790652 13.269560598099961 6.918417942591472 1 -1 0
51 0 2 0.5897 1.8787880779610704 15.358471812880897 6.183267634347931 0 1 0
49 0 1 -1.1794 2.459102789699756 14.596998402434362 6.147485445435429 0 1 0
242 0 2 0.5897 3.9131837339588214 14.962013616692246 7.531048791561436 0 -1 0
241 0 1 -1.1794 4.435182419246763 15.748625564404534 7.588837673335114 0 -1 0
787 0 1 -1.1794 5.279897286764518 13.082431154518009 4.983865644517834 0 0 0
216 0 2 0.5897 6.694457604274192 14.838975667370422 6.130225596542746 1 0 0
214 0 1 -1.1794 6.939072177814638 15.278890801655601 6.902406495387897 1 0 0
215 0 2 0.5897 7.462896889448055 16.07457610737174 6.614268936322361 1 0 0
2 0 2 0.5897 8.33177467164191 14.039080972688405 7.599358786578643 -1 0 0
1 0 1 -1.1794 9.066101932217943 13.421886758025796 7.761263175498919 -1 0 0
243 0 2 0.5897 5.326095475958954 15.438842595711044 7.452648156883729 0 -1 0
300 0 2 0.5897 12.155575003023685 14.201263272278204 5.388905040798474 0 1 1
298 0 1 -1.1794 12.884748830969217 13.552285490490183 5.565587859909984 0 0 1
3 0 2 0.5897 9.718180821979885 13.879095229035462 7.1994595010597715 -1 0 0
376 0 1 -1.1794 10.699131256694152 15.197092123469654 5.916541797850118 0 1 1
378 0 2 0.5897 10.140620011515242 15.561088066046377 5.17145226519606 0 1 1
377 0 2 0.5897 10.946844064245822 15.89183783458467 6.466748356608696 0 1 1
677 0 2 0.5897 13.205004468580693 13.715470840993632 7.4902832285438015 0 0 0
676 0 1 -1.1794 13.622769191989097 13.458071750649331 8.327701351225912 0 0 0
628 0 1 -1.1794 15.499488765148486 13.837261888601692 4.948180481635922 0 0 0
630 0 2 0.5897 14.553001672801043 13.640805978773898 4.867712392943811 0 0 0
861 0 2 0.5897 17.058180027551998 14.767900505793104 8.561844031694857 -1 0 0
238 0 1 -1.1794 16.65839323934018 15.361050458580962 6.957824176797193 -1 0 0
239 0 2 0.5897 17.365766328704957 15.922301652685821 6.645560435145466 -1 0 0
240 0 2 0.5897 16.35150440206035 14.805205243957245 6.197508790872068 -1 0 0
678 0 2 0.5897 13.94068319803893 14.323394847762506 8.680029424904818 0 0 0
831 0 2 0.5897 14.842050108365338 16.787282820390654 7.307451405017857 -1 0 0
808 0 1 -1.1794 1.453560676870892 19.9702656928805 4.828482439083906 1 0 0
208 0 1 -1.1794 4.371324127858758 19.654274264946466 4.747832018199379 1 0 0
249 0 2 0.5897 3.8232928239821877 17.570187566190345 7.49160530583776 1 0 0
209 0 2 0.5897 4.192968049427684 19.121138753809635 5.4838870478884445 1 0 0
247 0 1 -1.1794 3.5986831502469987 18.464745878349312 7.125577929353922 1 0 0
767 0 2 0.5897 1.5074023451714986 17.229462569955366 5.188957507735529 -1 0 0
766 0 1 -1.1794 1.3885257186961155 17.035546652673947 6.101680797760884 0 0 0
248 0 2 0.5897 3.8526467326235654 19.068180392085328 7.835774490620568 1 0 0
768 0 2 0.5897 2.1098156475671104 17.6227140881349 6.49896236044179 0 0 0
809 0 2 0.5897 1.5034806550078577 20.139418717093022 5.77098437655193 1 0 0
633 0 2 0.5897 1.3143706193325406 19.078967789869363 8.530868071256059 1 -1 -1
586 0 1 -1.1794 1.475097847295282 20.839211982166965 7.213902340433503 1 -1 0
670 0 1 -1.1794 7.133714780276403 20.703606020330046 8.305588470883052 0 0 0
672 0 2 0.5897 7.929193204169304 21.059959067275198 8.761529830874442 0 0 0
671 0 2 0.5897 7.362806507580356 20.468953688936104 7.432811719862126 0 0 0
714 0 2 0.5897 6.853097788551843 20.760170965459352 5.261324145606501 1 0 0
712 0 1 -1.1794 7.703563018435288 20.46632591536207 5.506137044920232 1 0 0
441 0 2 0.5897 6.812418232630828 17.863856836991673 8.250635824730441 0 0 0
824 0 2 0.5897 8.408375073647742 18.52277323181679 6.146911526253975 1 1 0
823 0 1 -1.1794 8.356080743071303 17.788908338781102 6.747817038238962 1 1 0
140 0 2 0.5897 5.453958556386662 20.455126417493904 8.917117755932743 1 -1 0
470 0 2 0.5897 12.581600874985897 19.619042824998314 4.773807856082447 0 -1 0
307 0 1 -1.1794 11.109135103458755 17.706697423806038 7.2749964566678065 0 -1 0
308 0 2 0.5897 11.906300008401358 17.85879988542502 6.725670849648709 0 -1 0
309 0 2 0.5897 11.444360762582045 17.560760093338654 8.165669105447167 0 -1 0
469 0 1 -1.1794 13.338530141403426 19.011056151205047 4.911986157177448 0 -1 0
825 0 2 0.5897 9.281134243435467 17.780427729947178 7.066572546066074 1 1 0
322 0 1 -1.1794 10.68289040324175 20.586340509938022 7.191524714747758 0 0 0
323 0 2 0.5897 10.930489972231785 19.67256924859674 7.280247667759814 0 0 0
600 0 2 0.5897 14.733209516354309 20.87253876006669 5.1891709589185115 0 0 0
830 0 2 0.5897 14.337974545532845 17.023511049012406 5.96912728955231 -1 0 0
829 0 1 -1.1794 14.082324340149402 17.25046071767655 6.898169308181666 -1 0 0
729 0 2 0.5897 14.349522300982967 19.30857231148836 6.8387826881106095 0 0 1
727 0 1 -1.1794 14.754928631272486 19.854037642004602 7.529795332451719 0 0 1
728 0 2 0.5897 15.04515008003092 19.198474570218867 8.154873546411515 0 0 1
284 0 2 0.5897 13.652388926545127 20.906122507597548 8.26114182628648 0 -1 0
444 0 2 0.5897 0.5380124815625433 4.021269187009837 9.201889481240954 0 0 0
119 0 2 0.5897 4.178587581680178 1.5803021245150228 9.979668999068723 0 -1 0
120 0 2 0.5897 2.689458672315733 1.7107310770037947 10.496724638721316 0 -1 0
118 0 1 -1.1794 3.6111094893880358 2.010427207166063 10.63698578042445 0 -1 0
756 0 2 0.5897 3.380588699108204 3.8370424910419327 10.742792980538388 0 1 0
191 0 2 0.5897 4.435061237957846 1.8838714420112652 12.280704133699036 0 1 0
393 0 2 0.5897 2.0392427339898402 4.476920551242747 12.443314242789473 1 0 0
137 0 2 0.5897 1.0614917426367194 0.5232961958529126 11.492776394903498 0 0 0
136 0 1 -1.1794 0.9250845505406599 0.8391464674049693 10.597080911654974 0 0 0
315 0 2 0.5897 6.166567098080786 3.158345755447121 9.403708191377511 1 1 0
190 0 1 -1.1794 5.1320409044028334 1.5142307715458998 12.891859711167106 0 0 0
837 0 2 0.5897 6.4674230435832145 3.1780596219169595 12.56746073460646 0 0 0
835 0 1 -1.1794 7.21009072449453 3.6802602627155667 12.19216368346777 0 0 0
836 0 2 0.5897 6.8521023906772225 4.283748167038738 11.492378845557337 0 0 0
6 0 2 0.5897 8.227496506038644 2.417732130578117 10.794327124730332 -1 1 0
4 0 1 -1.1794 8.506584695818576 2.126513809457467 9.929670060189881 -1 1 0
260 0 2 0.5897 12.557708066310482 4.323061763167251 9.028138832092463 0 0 1
5 0 2 0.5897 9.360105570962425 1.7487843387500948 10.109114291499779 -1 1 0
638 0 2 0.5897 11.584567787267138 2.9123142280026393 11.46381028511972 0 0 0
637 0 1 -1.1794 10.98892574250599 3.1728899619863626 12.144952383702728 0 0 0
639 0 2 0.5897 10.7227031931265 4.080616669178071 11.915625576443137 0 0 0
435 0 2 0.5897 11.650680882400058 0.46267660880027595 10.115177364369806 1 1 0
433 0 1 -1.1794 10.855516006754515 0.4543245108003194 10.671538119992338 1 1 0
283 0 1 -1.1794 13.176578021451155 0.6979279882520899 8.990914510638806 0 0 0
285 0 2 0.5897 13.642478967317972 1.5884466467028473 9.149184394009806 0 0 0
822 0 2 0.5897 13.536927874085382 2.8780039177270442 11.586150289301735 -1 1 0
820 0 1 -1.1794 13.797169031615235 3.138851940960893 10.652572684176645 -1 1 0
667 0 1 -1.1794 16.751993616364746 3.0008209263908157 9.688963275795393 -1 1 1
669 0 2 0.5897 17.16867504808753 2.2604655605380697 10.1575188615653 -1 1 1
821 0 2 0.5897 14.74972400043332 3.4061377335788885 10.610707797105603 -1 1 0
26 0 2 0.5897 16.353612597519952 1.4706843252613484 12.922106389396667 1 0 -1
25 0 1 -1.1794 15.928827913302735 0.574669781630582 13.09243894880713 1 0 -1
443 0 2 0.5897 1.821060138923381 4.729658692962419 9.461962307291481 0 0 0
35 0 2 0.5897 4.526674714538166 7.480422078408489 9.84803306788757 0 0 1
755 0 2 0.5897 3.749568913119897 5.331097630978302 10.954658167572834 0 1 0
754 0 1 -1.1794 2.9971385524612058 4.696492248582604 10.975947322467528 0 0 0
391 0 1 -1.1794 1.4588869784722773 4.5612030165290145 13.209691075661276 1 0 0
161 0 2 0.5897 7.254015506978995 5.1599711373340575 9.194581332269758 0 0 1
160 0 1 -1.1794 6.525697549296974 5.038986990088743 9.831346932368609 0 0 1