LAMMPS data file via write_data, version 23 Jun 2022, timestep = 15704000

2592 atoms
2 atom types

0 30.923 xlo xhi
0 21.319344 ylo yhi
-0.9021697207575627 31.624764720757717 zlo zhi
-9.137482 1.13580877037403 -10.6898480013869 xy xz yz

Masses

1 1.008
2 15.999

Atoms # full

571 0 1 0 -8.160017230999358 18.808848021566387 4.529902804525085 1 -1 0
822 0 2 0 -0.11664974585150456 -0.11387749588151053 9.454944275835691 1 1 0
582 0 2 0 10.192957600079582 1.1118849958752257 14.777816190532128 0 0 0
1221 0 2 0 11.479352993883934 3.0045036328053536 8.72696614854675 0 0 0
537 0 2 0 6.075155863662368 7.141104010362305 1.95169659166192 0 0 0
879 0 2 0 10.310849489455899 1.4664265557205947 2.543362589604511 0 0 0
865 0 1 0 1.4848239709053441 -0.6412678295758366 1.1095909866084055 0 0 0
1247 0 2 0 4.284886991586727 10.140363492544848 6.806576028418788 0 0 0
1049 0 2 0 2.262191820210795 0.24359740032301147 12.167231445151327 0 0 0
265 0 1 0 -1.8741837792883065 8.755194585003764 11.722189250532937 0 0 0
972 0 2 0 2.975831474732813 7.970938712173485 5.712678144452824 0 0 0
140 0 2 0 -1.6426148017028237 16.833741148761636 1.9526388222249182 0 -1 0
249 0 2 0 14.308986040975874 -0.8091559631644598 11.26305732961287 0 0 0
1241 0 2 0 2.2316651376459093 1.5936378463382086 8.369646797887793 0 1 0
680 0 2 0 9.970825680173755 11.451789557936532 1.216986356854139 0 0 0
1234 0 1 0 8.017999745852016 13.41474272513209 4.057190374088464 0 -1 0
1017 0 2 0 6.604456992447369 3.90603048471764 6.613341892397891 0 0 0
734 0 2 0 -1.5849602351356946 18.570403733233963 7.437609730613611 1 -1 0
1210 0 1 0 3.6448722495059975 5.087861334864808 4.135238422995599 0 0 0
317 0 2 0 -3.780903256092574 5.929780944230408 12.90818351119794 0 0 0
267 0 2 0 -2.1620602031967993 8.79822872040663 12.636846444512996 0 0 0
809 0 2 0 4.3897907538005105 0.6560920322174515 6.307094328704141 1 1 0
851 0 2 0 -4.0852484451999915 14.93154404958928 6.40413256556876 0 1 0
647 0 2 0 1.90129777726241 13.970949424984148 14.837667854851277 0 -1 0
489 0 2 0 7.133261583844329 1.2940883435229908 7.004105366721609 1 1 0
827 0 2 0 4.246178350128283 10.45406204786505 0.9990174340672142 0 0 0
251 0 2 0 9.01937031721985 5.376325650509794 12.35723018419687 0 -1 0
531 0 2 0 -2.983863588794652 8.922556042145803 3.0428163165927065 1 0 0
754 0 1 0 3.500818029362048 13.88785034139079 9.681619908649957 -1 0 0
63 0 2 0 -5.197198973791578 15.031242965771568 11.857042260017357 0 -1 0
328 0 1 0 -2.496233288961657 11.14404265812866 5.291843209193833 0 0 0
1254 0 2 0 10.145096520857576 -1.1211674797815685 14.593302151951939 0 0 0
662 0 2 0 -6.471221757487972 18.40822506818247 6.805161271515556 0 -1 0
992 0 2 0 -3.4101755840667893 13.66563432267391 13.002695892946553 0 0 1
491 0 2 0 1.0426767870096234 13.048660420083069 11.569382780184398 0 0 0
139 0 1 0 -1.262880714318907 15.988021453297806 2.2616745072022857 0 -1 0
452 0 2 0 12.579138272642084 1.1159162218375833 2.448957601846552 0 0 0
1206 0 2 0 -5.033731755230899 9.312438753426282 11.912471022871054 1 0 0
121 0 1 0 -2.75754287072194 15.204505437838176 14.413318700653608 0 -1 0
36 0 2 0 7.147240210931109 14.286426852790349 11.433383367152592 1 -1 0
304 0 1 0 -6.254901866673891 14.655635206300717 9.184485152176201 0 -1 0
1188 0 2 0 7.267571967059648 8.960860656847052 3.5036590721206364 0 0 0
1065 0 2 0 2.028012733179133 1.3355352094912334 3.5152210001455977 0 0 0
250 0 1 0 9.556873709688606 6.086115814121226 11.936012329920905 0 -1 0
1260 0 2 0 8.635476708268731 1.8330470787827455 3.8987830368255185 1 1 0
1019 0 2 0 4.563543263581873 14.473826603160386 5.40928980300376 1 0 0
666 0 2 0 0.19944252235393772 2.621198932141964 3.6779231634253824 1 1 0
1202 0 2 0 -0.7415980860439353 8.467709194641156 14.719847557719856 0 0 0
430 0 1 0 4.741804097551575 10.756296142298597 2.5780044131159405 0 0 0
1173 0 2 0 11.714041320323606 1.0835365826729282 12.745100872837323 0 0 0
684 0 2 0 -0.22673167467502103 11.164136317237478 6.476561781181414 0 0 0
340 0 1 0 3.2631132972530548 15.14981643389268 12.198213593185324 0 -1 0
1212 0 2 0 3.1454676033593096 5.288751597980703 3.345851686138925 0 0 0
223 0 1 0 3.19625365737701 17.45032557092902 5.064966708108482 -1 -1 0
894 0 2 0 -0.014564369503950623 14.390485084259582 -0.5378152101104052 0 0 0
530 0 2 0 -1.9049149573242476 8.09511590898865 3.818471832231573 1 0 0
846 0 2 0 6.233383605727762 2.1006885115832574 11.938660528633406 0 0 0
288 0 2 0 0.5248851255577488 8.776367591064147 7.98692113553729 1 0 0
579 0 2 0 -2.75644260367052 10.421562686288649 7.110130420783811 1 0 0
1147 0 1 0 -5.321519463234352 16.61034926858553 4.325893738566467 0 0 0
264 0 2 0 1.1780615908307985 4.677563872916734 2.291097225474899 0 1 0
847 0 1 0 -4.70075073913204 13.69569415862153 1.286138440913902 0 0 0
1519 0 1 0 4.010577202207002 -4.753423117748255 14.845901479010681 0 1 0
1010 0 2 0 2.4038916317551946 16.1133328957879 14.744093440740219 0 0 0
808 0 1 0 3.505359007877761 0.7216509950931096 6.026543579812759 1 1 0
1150 0 1 0 8.43640830081222 8.04002446106538 6.791527150154286 0 1 0
289 0 1 0 -0.5579403800525342 1.4185620175844362 10.893794932104983 0 0 0
428 0 2 0 -1.8263234010037763 14.376994141587867 6.508991046536505 0 0 0
238 0 1 0 0.9045910435535961 11.17440106153204 14.263732848080892 0 -1 0
617 0 2 0 4.206278212500541 7.059095110253711 1.0713048425188203 0 0 0
524 0 2 0 -1.7023149988876105 6.237028141174061 5.616123200613888 1 0 0
1244 0 2 0 6.481836123861483 8.03604970224995 10.113986549802375 1 1 0
1222 0 1 0 9.280420060354185 5.519739840149198 7.944223676312655 0 0 0
1148 0 2 0 -4.908970285955867 15.780748601187494 4.149233182862705 0 0 0
634 0 1 0 0.29020793750893936 6.676958288812413 10.220261783987906 1 1 0
372 0 2 0 1.1151161484604262 17.52836435783572 3.4736093484389565 0 0 0
805 0 1 0 8.230916452855372 -4.507952115481675 13.204932662854494 0 0 0
1152 0 2 0 9.250149969373318 8.523554307792924 6.680766118342739 0 0 0
2366 0 2 0 4.255413587082847 13.763634415255243 0.27694553331164773 0 0 1
1145 0 2 0 8.581476366248616 3.8658222823087804 0.854959617983793 0 0 0
215 0 2 0 -3.72584861853871 7.1665679567875165 6.467466877728375 0 0 0
228 0 2 0 -4.445615086478055 11.90482240341651 9.75317539477484 0 -1 0
1146 0 2 0 9.322308659066245 4.328378818393736 2.1833962036946666 0 0 0
619 0 1 0 -2.1715116177350215 5.003335590489263 4.238236476919535 1 0 0
299 0 2 0 -1.8889520326444504 4.404180579027248 10.757903557989364 1 1 0
1256 0 2 0 7.034520694485765 5.9099118930314845 10.720900440755385 0 1 0
184 0 1 0 1.5850519299900614 14.03942875014269 6.261983269541899 0 -1 0
185 0 2 0 2.4602948567357563 13.99633992638757 6.660991376683507 0 -1 0
861 0 2 0 -3.467821229787738 12.354804188075065 14.74020190284187 0 0 0
187 0 1 0 4.3147298919726085 4.163916200817024 0.7813219809378482 0 0 0
188 0 2 0 4.8346870367287025 4.987086127899346 0.8886963634550973 0 0 0
189 0 2 0 3.423692189303932 4.306882204149036 1.0853883882051212 0 0 0
178 0 1 0 5.552708844029583 11.682478006784649 9.946398047983092 0 0 0
1129 0 1 0 14.318753083473908 -0.2979221948201576 9.343153906146911 -1 0 0
927 0 2 0 9.194041758397278 4.097662695359905 5.0178318957315176 0 0 0
778 0 1 0 8.806717151975477 3.0657035464759734 10.287494677391711 0 0 0
486 0 2 0 3.942671964973435 5.148853034929802 11.118390087488194 0 -1 0
82 0 1 0 7.0456988061865164 3.459773478601304 -0.3365359860775281 0 0 0
806 0 2 0 7.825278666599362 -3.6206808318555748 13.053432652946247 0 0 0
607 0 1 0 -0.41151663248293535 0.07852808015491952 14.204576446959507 0 0 0
663 0 2 0 -5.710171118660551 17.02886328736655 6.789278683970733 0 -1 0
536 0 2 0 6.655421294147229 6.650727363213959 0.5905712608899689 0 0 0
2343 0 2 0 8.465897128997577 8.782025825137449 -0.6482608292944119 0 0 1
570 0 2 0 11.251671242600493 8.308563773106915 3.4529647850338128 0 -1 0
866 0 2 0 0.6602911660038773 -0.20178417219265027 0.9050823117989524 1 0 0
1263 0 2 0 6.224787023049348 2.361912783146051 3.6875799780050746 0 0 0
826 0 1 0 3.8939988541865076 10.233985158031237 0.133630291364649 0 0 0
335 0 2 0 7.7408325162826435 11.33790127853842 7.465548927036222 0 0 0
1087 0 1 0 0.22351213767772243 -2.406156181130309 11.35342647849675 0 -1 0
197 0 2 0 5.365620667552486 5.677963607949056 14.720003933901298 0 0 0
342 0 2 0 3.881602055127695 15.913857996823253 12.122415751455028 0 -1 0
1227 0 2 0 7.879335977679178 10.359799076596765 4.9795581554037724 0 0 0
186 0 2 0 1.2093438410600703 13.120670628010776 6.382623605225644 0 -1 0
213 0 2 0 -2.4966074832476783 3.0793888947325296 12.781104678127356 0 0 0
1289 0 2 0 11.053078977239416 3.109464580973861 14.108251027795863 0 0 0
580 0 1 0 11.092722607741027 1.279770407133455 14.48616125620766 0 0 0
886 0 1 0 1.49039249164979 17.427398669782526 7.349623079553396 0 0 0
153 0 2 0 -3.1008508369250705 9.413358070940859 14.465474520071751 0 0 0
291 0 2 0 -1.520681190656602 1.4852727640356966 10.588478283214837 0 0 0
179 0 2 0 5.24993318587972 11.057037906712381 9.2872182185319 0 0 0
235 0 1 0 7.072548913779195 14.477459427450064 7.836687762590742 0 0 0
415 0 1 0 6.7651331259975285 -0.8869088164459606 10.205123849071656 1 0 0
1142 0 2 0 -2.3363571817360467 17.63601180283887 4.9039908506810885 -1 -1 0
1000 0 1 0 6.7589274013236365 0.9335621414820405 0.39784226308657344 0 1 0
151 0 1 0 -2.5072428847500996 8.64789609796128 14.33046301923633 0 0 0
191 0 2 0 5.881413443401621 17.983662692548933 0.5643094156085988 0 0 0
219 0 2 0 5.452903750238663 15.519126956013247 2.117593653700056 0 -1 0
1246 0 1 0 4.559799827469144 10.58722945821981 5.983339594857835 0 0 0
1261 0 1 0 6.618031136476998 1.6203651429526529 4.217091053225488 0 0 0
429 0 2 0 -1.8148571684645145 15.600758122926848 5.516997799147692 0 0 0
1074 0 2 0 3.3453780427794917 9.886305373050313 10.879096414689757 0 0 0
1198 0 1 0 7.089565514689575 11.927616306074892 13.273705113128175 0 0 0
1232 0 2 0 0.06995785685289924 10.96770449170897 10.747172823582234 0 0 0
557 0 2 0 12.004780597169233 0.8115735340441574 9.103872499534795 0 0 0
529 0 1 0 -2.8866583324583295 8.390720088474898 3.842038709131396 1 0 0
523 0 1 0 -1.957897308823036 6.9756830127394425 6.249817724880829 1 0 0
425 0 2 0 0.6032475015271052 9.194349786885844 5.6314644513384025 0 0 0
460 0 1 0 -1.946498229159633 11.880609957529707 13.788148291868389 1 0 0
744 0 2 0 9.919865749576173 0.019714264878865073 9.464367332216467 1 1 0
984 0 2 0 -0.7323700521728262 2.4723999174369715 -0.1818565509627823 0 0 0
521 0 2 0 7.0076077685068805 17.178054238950036 6.861878875288036 0 0 0
141 0 2 0 -2.02418043710417 15.563089397610229 2.7519811472414806 0 -1 0
1200 0 2 0 6.810364042536544 11.117244315221278 13.760606527132444 0 0 0
125 0 2 0 -1.8810558499338148 11.977732525889511 10.319613745448285 0 0 0
558 0 2 0 11.523551222087137 1.4079066211389533 10.508526575918497 0 0 0
893 0 2 0 -0.5215246089634334 15.178116169948042 0.815247374057757 0 0 0
888 0 2 0 2.002610077434513 17.5096757926541 6.491384938578503 0 0 0
1107 0 2 0 -6.1175782795101945 14.690752295705302 0.7729297474999879 1 0 0
519 0 2 0 5.239190807249761 1.583846250882322 8.218201748167147 0 0 0
1208 0 2 0 -4.940852340024304 19.46616237385309 1.609118167597773 0 0 0
982 0 1 0 -0.5223159234393048 3.424486754461286 -0.3582182040190556 0 0 0
2486 0 2 0 5.4928810314359 15.671685595628464 -0.4040881985687764 0 0 0
306 0 2 0 -5.660568843618932 15.019610353166279 8.530738101449602 0 -1 0
1204 0 1 0 -5.397938797437741 10.094773138296118 12.404133879463652 0 0 0
1005 0 2 0 7.623890296020608 0.9721796956133923 14.721521864508649 0 0 0
785 0 2 0 -0.6636222636521911 13.923696720791622 11.009586343431678 0 -1 0
1135 0 1 0 12.736815199574938 0.728786098584226 7.267026054122546 0 1 0
488 0 2 0 6.894665240845991 -0.24898822097055184 7.100356807961722 1 1 0
366 0 2 0 3.416739169413021 -2.4760410414827803 12.421627593897618 1 0 0
644 0 2 0 -7.694207812563921 17.46731714141487 8.754777835496684 1 1 0
325 0 1 0 0.7542415250299297 5.598666979656336 4.686523560073021 1 0 0
902 0 2 0 4.140322403795785 19.621121327624824 1.543194741115534 0 0 0
115 0 1 0 14.73710460124453 0.5861257042455241 0.279200832486451 0 0 0
1242 0 2 0 2.314072952625809 2.8457042734624416 7.60938038798157 0 1 0
591 0 2 0 8.262343492161229 7.390238275300825 14.771297517766255 0 0 0
236 0 2 0 7.3361533162941575 13.573652935759068 8.088441224198803 0 0 0
779 0 2 0 9.792288730421527 3.0614515870852865 10.425374375456666 0 0 0
2474 0 2 0 2.7901423568132224 -0.20370194370581515 -0.15138673184517637 0 1 1
237 0 2 0 7.0585623009808245 14.95887676250787 8.645729113410635 0 0 1
1233 0 2 0 -0.46773148811715526 9.731083349368708 11.563367398065388 0 0 0
432 0 2 0 5.470953496910813 11.39064061149555 2.560038097434823 0 0 0
720 0 2 0 4.913746729110789 8.891831511465815 3.4143511359237326 0 1 0
784 0 1 0 -1.2970851265531809 13.85144061929692 10.268143600313 0 -1 0
768 0 2 0 4.715880842422544 -2.38606630858992 7.7719230624547215 1 0 0
898 0 1 0 2.569873733118128 13.7527023343449 1.0480299118272531 0 -1 0
330 0 2 0 -1.7348962739737264 11.593391863733938 4.927023499892543 0 0 0
290 0 2 0 -0.176256842902701 2.2646132485793915 10.891233370616199 0 0 0
810 0 2 0 3.3089508546691047 1.663775116559139 5.977961364935542 1 1 0
813 0 2 0 5.451502074892434 -1.0180126820278421 2.98265529333121 0 0 0
280 0 1 0 12.944385083187807 -1.2406007062202287 4.28805653185231 0 0 0
939 0 2 0 -1.0058224645955716 4.307622651227558 2.9888995572419055 0 0 0
490 0 1 0 0.5241269187736171 13.069099718721906 12.373821572439253 0 0 0
126 0 2 0 -2.259204870668274 10.541280756723097 10.842359736893599 0 0 0
1072 0 1 0 3.053468255881433 10.509235215659011 11.503501902473895 0 0 0
848 0 2 0 -5.044318935839429 12.80109914668001 1.0675449429390373 0 0 0
712 0 1 0 1.9835162194895066 9.081066824490597 2.276921005413011 0 0 0
807 0 2 0 -1.6859686809745202 16.317228779936592 13.58026270691411 0 -1 0
258 0 2 0 -3.1507508296917037 13.079410820864382 7.250878407596147 0 0 0
780 0 2 0 8.394679762152553 2.3449085478481475 10.750696568205797 0 0 0
1035 0 2 0 -1.556525091030075 4.278386563535776 8.381603252979158 0 1 0
479 0 2 0 7.60135109456393 11.983666568823766 1.3601936789818505 0 0 0
745 0 1 0 -6.166677853762328 18.414593992214392 2.4061367494687236 0 0 0
718 0 1 0 5.627900262729853 8.21364697235122 3.383555200651114 0 1 0
305 0 2 0 -6.148051942697753 15.17926538306261 9.962210710165474 0 -1 0
253 0 1 0 2.4468814137977084 9.324518054701434 4.8293943135810045 0 0 0
260 0 2 0 -2.211558083833987 6.029976115497633 14.440786079995497 0 1 0
900 0 2 0 1.8440819395832628 14.330533343427424 0.858303421651132 0 -1 0
756 0 2 0 3.816477223255762 14.517686132479682 9.003903155756806 -1 0 0
204 0 2 0 1.7528810529815564 15.920324137892699 11.326806271635178 0 0 0
192 0 2 0 6.902257333639081 19.10739175354447 0.973761811480659 0 0 0
624 0 2 0 14.861653350998903 -2.4119907914907865 6.487961664317452 0 1 0
1290 0 2 0 10.218713421545552 4.371363369912568 13.725928359253098 0 0 0
901 0 1 0 3.1791499694740453 19.496959259715585 1.448124044857019 0 0 0
609 0 2 0 0.22713438373673023 -0.6324421295054226 14.430005563218444 0 0 0
266 0 2 0 -2.318941646301005 8.155666948033554 11.182639310685166 0 0 0
1236 0 2 0 7.634494187995246 13.449772133867306 3.172384770646497 0 -1 0
333 0 2 0 2.977701718453481 -3.8031804633074717 11.077732862942721 0 1 0
2450 0 2 0 -1.7332816209103774 17.270307761594875 -0.47310317333426155 0 0 0
828 0 2 0 3.875901132866795 9.279925762989311 0.07153785791637546 0 0 0
855 0 2 0 0.28040092517535586 5.317652582580439 14.373557868695539 0 0 0
371 0 2 0 0.5505381752879352 18.939115878104282 3.5879227472324713 0 0 0
365 0 2 0 3.743190667326874 -3.2544072237059796 13.706620561513914 1 0 0
1268 0 2 0 1.3221381004301644 6.664725019637346 12.975901568634935 0 0 0
1080 0 2 0 3.5838461251913625 12.595672012642286 14.520203606148264 0 0 0
56 0 2 0 4.515942078361645 15.880084412682585 14.908060799255175 0 0 0
1294 0 1 0 8.066506004329556 15.10173336879586 0.4504967911487361 0 0 0
1016 0 2 0 5.347312424560298 4.317780434218834 7.448105981537642 0 0 0
244 0 1 0 10.152606195030831 3.0398807095653404 5.964225048218845 0 0 0
914 0 2 0 6.811632717134633 7.636524756372851 6.4210789220020885 0 1 0
239 0 2 0 0.8309073782599867 10.253826184947215 14.513745521597523 0 -1 0
849 0 2 0 -4.108809283160908 13.870531147812565 0.4976386518306477 0 0 0
281 0 2 0 12.07388447215603 -1.1775013241012946 4.790168518368028 0 0 0
867 0 2 0 1.90054949031577 -0.1656112411951164 1.8553520089991626 0 0 0
1004 0 2 0 8.425854180194792 2.2779096693119296 15.125455697571713 0 0 0
378 0 2 0 5.255820374967052 7.351611158059144 12.06728852825566 1 0 0
2510 0 2 0 2.6183222292920005 20.61507021029725 0.22166928325977553 0 0 1
423 0 2 0 0.7876297027539785 12.419001775119952 8.935828861331458 1 0 0
2193 0 2 0 5.331340766485855 4.576060517301793 3.8938690478927898 0 0 1
1001 0 2 0 6.449717758321872 0.2175045477649155 -0.2236075769092608 0 1 0
1149 0 2 0 -6.246785664231327 16.324566181112793 4.4431762992086705 0 0 0
636 0 2 0 -0.6182208269128215 6.7901558885251845 9.747580629363839 1 1 0
331 0 1 0 3.2374056314622184 -2.955393706952395 10.759679376933283 0 1 0
1201 0 1 0 0.22508593049182712 8.612948661481173 14.8086332546859 0 0 0
1520 0 2 0 -5.964973312175541 16.101527411321356 14.91308276743559 0 0 0
282 0 2 0 13.128148302792281 -0.41302059182759465 3.822326644740362 0 0 0
738 0 2 0 5.1223391721142155 12.335284767735768 12.959735477197464 -1 -1 0
276 0 2 0 -6.59569281915978 16.865377890290702 -0.17131998018601868 1 0 0
983 0 2 0 0.3992717858182547 3.45741820322217 -0.6128556440785664 0 0 0
1089 0 2 0 0.7129243473786641 -1.5630720594367253 11.35866080618501 0 -1 0
474 0 2 0 6.516447304731825 -2.027913353369656 11.703549039831413 0 1 0
496 0 1 0 11.079703008853183 8.2127800869437 0.3028033554407672 0 0 0
831 0 2 0 -4.283020351550482 12.317022146599491 5.592766162201279 0 0 0
876 0 2 0 -4.649600885655193 9.430400979801174 8.234074792879813 -1 -1 0
755 0 2 0 3.3428921146115176 14.485001421468743 10.511170832577912 -1 0 0
77 0 2 0 4.665989661812375 3.7305026466773255 9.414310267241252 0 0 0
542 0 2 0 6.193062929937845 17.907769000849918 4.452680222352054 0 -1 0
878 0 2 0 10.536660729211397 1.094929733435327 1.0112310955574084 0 0 0
467 0 2 0 5.316643260868925 -1.9872662188007575 5.207917865275414 1 1 0
1295 0 2 0 7.5190324128115495 15.070523319321083 1.27913661942 0 0 0
544 0 1 0 0.0573719570826558 15.295197556120009 8.357308349143903 0 0 0
147 0 2 0 -3.374402173368954 14.080440073717664 4.094478161406647 1 -1 0
364 0 1 0 3.7456961975123244 -2.3464582333984496 13.36536365387104 1 0 0
970 0 1 0 3.212864184330577 7.044983042761486 6.032455814048527 0 0 0
1176 0 2 0 0.6195015823946239 5.167499607201559 7.908545379885432 1 1 0
545 0 2 0 0.5847803426733184 15.911466290242416 8.911219715982122 0 0 0
841 0 1 0 12.153215386019477 4.201267342243655 0.4395710785134488 0 0 0
1048 0 1 0 1.6443070214604063 -0.1137796523587391 11.566831791418501 0 0 0
517 0 1 0 4.8708392836892 2.100197952077849 8.945145925263068 0 0 0
1115 0 2 0 0.7242567494668999 -3.489177578106471 12.894236993527976 0 0 0
158 0 2 0 7.517698655266964 4.787123735732765 13.941581986185671 0 1 0
1223 0 2 0 8.393808101542652 5.462855720905974 8.368629166950834 0 0 0
476 0 2 0 5.381228650611881 2.7592169753363125 14.170857328341542 0 0 0
518 0 2 0 4.169186449950468 1.5095879549856366 9.359902708561528 0 0 0
1171 0 1 0 12.401094808202537 1.0707367029724404 12.017555466049677 0 0 0
1225 0 1 0 7.375861745014992 11.056726084062548 5.512173396942661 0 0 0
254 0 2 0 2.3453770880986444 9.309756607443138 3.8267602091865234 0 0 0
623 0 2 0 13.955598939077472 -1.5447817133187463 5.668961281228487 0 1 0
1094 0 2 0 0.28709022378086196 20.645398931620477 0.4969111066055061 0 -1 0
762 0 2 0 3.838339540125249 8.091012122884148 13.699982413213665 0 1 0
487 0 1 0 6.383345318609209 0.6431319620072955 6.997216302362253 1 1 0
480 0 2 0 6.388053627628132 12.988912803365782 1.0251942057723487 0 0 0
157 0 1 0 8.161162024312894 4.384952106986622 13.382164883648583 0 1 0
850 0 1 0 -4.3190469905478 15.598078572512788 7.052121370487668 0 0 0
326 0 2 0 0.315187183968362 5.257838612240944 5.52330397196738 1 0 0
1259 0 2 0 9.400809864504055 0.46912400811298705 4.170493268717191 1 1 0
286 0 1 0 1.0868130333403563 8.722771735830868 8.721378369923995 1 0 0
910 0 1 0 11.787426447999298 -2.121922961876246 13.560470931153608 0 0 0
555 0 2 0 0.2755086661596554 1.741532872596852 14.484155250966701 0 0 0
980 0 2 0 3.0547415924971197 5.40968499794668 8.670933017830256 0 0 0
640 0 1 0 1.868908519259361 -1.5089201341407987 15.26029628835894 0 0 0
255 0 2 0 3.0949606211782466 10.031478209123861 5.054871653845977 0 0 0
123 0 2 0 -2.5443331389840305 14.74454461122199 15.224204392445824 0 -1 0
241 0 1 0 -6.348072657735324 14.148460712738192 14.306056492073097 1 0 0
600 0 2 0 11.3358253819322 3.891515662658013 12.194111361603065 0 0 0
2192 0 2 0 6.224884943093237 4.9981634526938405 2.7198415123699964 0 0 0
231 0 2 0 2.704706198395973 7.671174647209575 11.50527535290063 0 0 0
41 0 2 0 -0.0670535676398237 6.93717740531128 3.5370655980632026 0 0 0
98 0 2 0 4.607911382763734 8.799655817682215 9.004118118957573 0 0 0
646 0 1 0 1.2889975561655553 14.659001474162196 14.65336767050221 0 -1 0
1 0 1 0 6.969775401073757 -0.6534517393400927 14.641964794081645 0 0 0
175 0 1 0 3.3072212098181026 0.8293500406686576 13.371428025488337 0 0 0
909 0 2 0 1.628629465787854 15.137285590461822 4.488910999371255 0 0 0
567 0 2 0 -5.15874947191337 9.578672534362912 14.551014087421159 0 0 0
736 0 1 0 4.2490958690856395 12.695873506284869 12.913043391874202 -1 -1 0
1240 0 1 0 1.7679928485001588 2.4118824012735445 8.290050977628043 0 1 0
766 0 1 0 4.834441872846499 -2.375927229937971 8.744881353433152 1 0 0
477 0 2 0 4.759981276800641 3.430159036333401 12.930011999125703 0 0 0
472 0 1 0 6.321317987268055 -2.3227035790065917 12.626625241302156 0 1 0
742 0 1 0 9.303769785085748 -0.6987767898572552 9.38834157666435 1 1 0
1045 0 1 0 9.955938900445531 7.347497217306045 2.7520564006538804 0 -1 0
709 0 1 0 12.504849050242733 4.639368526720874 3.4402188969923584 -1 0 0
1284 0 2 0 -1.5497970839615234 2.2773606858028006 7.926416632037352 1 1 0
907 0 1 0 1.5614991495650132 15.241552550419135 3.5282746881323437 0 0 0
475 0 1 0 5.249124331967543 2.6415606825443243 13.201699096688875 0 0 0
1226 0 2 0 7.585791523477882 11.874815978550128 5.073028615385958 0 0 0
256 0 1 0 -2.336636906243262 13.22059958007696 7.814783004077965 0 0 0
649 0 1 0 -2.061191095227268 16.954801499042567 7.889336180397585 0 -1 0
385 0 1 0 -0.5949357564436198 12.955530392197325 3.882021715692966 1 1 0
829 0 1 0 -4.456227752297355 12.895014202825955 6.371598787583291 0 0 0
1011 0 2 0 11.919286861967482 -3.834993858318054 14.314835315397985 0 1 0
292 0 1 0 1.1839183201486205 3.7823633518545647 10.759287905272577 0 0 0
1117 0 1 0 1.0108018281507964 11.449926912062015 1.1514402965933912 1 0 0
180 0 2 0 4.8703547155178075 12.395205498182229 9.806161747232661 0 0 0
1269 0 2 0 0.7854966509113448 7.451192740054471 11.774446551461853 0 0 0
1166 0 2 0 -2.5915831026139253 6.836243271286371 1.3289982443094215 0 0 0
589 0 1 0 7.829272570310013 7.948099133101575 14.065238793398462 0 0 0
431 0 2 0 3.9872930022638284 11.110265495325827 3.0838509672813696 0 0 0
837 0 2 0 -3.511331056041708 9.136848330415638 -0.567807056030714 0 0 0
1219 0 1 0 11.782480997612783 3.575832141714986 8.067982978281009 0 0 0
735 0 2 0 8.449348358041078 -1.5777839558923255 7.958065687874875 1 0 0
462 0 2 0 -1.1801884928146809 11.704807176243131 14.286636815141463 1 0 0
1220 0 2 0 11.845921346287103 4.484406910147465 8.403250823795187 0 0 0
2191 0 1 0 6.227623053472619 4.519195679585451 3.53967527912748 0 0 1
450 0 2 0 3.7070330125764652 -0.8805030343777278 8.908473528953254 0 1 0
320 0 2 0 -2.516648558056605 11.147666345241587 1.9815015051467268 0 0 0
1009 0 1 0 12.175909871269043 -4.477473220602233 14.988291872090432 0 1 0
451 0 1 0 13.4935946199328 0.9488953359143011 2.792895624371781 0 0 0
679 0 1 0 9.155402767363682 10.945526822747974 1.2226840271695218 0 0 0
274 0 1 0 -6.4732775456533815 17.80760207020316 -0.24250747962168306 1 0 0
681 0 2 0 8.97809460135392 10.419946481202826 0.4063582736949103 0 0 0
152 0 2 0 -3.0756398579476283 7.933544516401473 14.482928565784347 0 0 0
145 0 1 0 -3.397160764210295 14.786001748125663 3.406875647694024 1 -1 0
991 0 1 0 -3.5823407296821874 13.902615653556094 12.092674226173157 0 0 0
556 0 1 0 11.218014509421787 1.253658252356678 9.587793816055648 0 0 0
1172 0 2 0 12.630192422890069 0.12701163495514933 12.128742807382702 0 0 0
1207 0 1 0 -4.169900930686969 19.958353312891944 1.2422320762448282 0 0 0
15 0 2 0 11.536426764387278 -2.0855741616950754 10.397626581187103 1 0 0
93 0 2 0 3.5827134134392367 5.855299625279529 13.266585939817709 0 0 0
1280 0 2 0 10.105831026513817 6.090919370356447 5.25400368017341 0 0 0
554 0 2 0 1.707221475267397 1.7917170714943031 14.219454928909238 0 0 0
520 0 1 0 5.992928826793496 17.19806716829539 6.806387611393912 0 0 0
613 0 1 0 8.014129760333036 2.80435071298747 7.4198015378804705 0 1 0
1231 0 1 0 0.33244217789450575 10.129151762380493 11.1484474667745 0 0 0
92 0 2 0 3.199580832636795 6.299317449901112 14.750140308935075 0 0 0
1073 0 2 0 2.0785976074397703 10.497465126926251 11.500031217357803 0 0 0
225 0 2 0 3.151973140540898 18.10403010732186 4.360035339977914 -1 -1 0
1267 0 1 0 1.329441053359585 7.581510870991534 12.553539769244736 0 0 0
550 0 1 0 -4.418769408151866 7.994694208817103 10.820128295127017 0 0 0
713 0 2 0 1.9111774357700875 9.934181515610412 1.7241200275090982 0 0 0
1118 0 2 0 1.6180580723944538 12.175631084147364 0.9340517086306106 1 0 0
497 0 2 0 10.747789701775867 7.475503577712335 -0.20965476572119734 0 0 0
664 0 1 0 0.5639086055604856 1.9372325594903244 4.272072647696905 1 1 0
1279 0 1 0 11.057297397064419 5.886282181151606 5.454819937803556 0 0 0
698 0 2 0 3.0671844234224923 16.140641377441966 2.5129731743564854 0 -1 0
417 0 2 0 6.7194575047862255 -0.046640935024954366 10.689363970401494 1 0 0
598 0 1 0 11.300989560850764 4.239997773097266 11.263516442982002 0 0 0
746 0 2 0 -5.731005606007848 17.71462592089695 2.8908704188915895 0 0 0
33 0 2 0 1.0470474750110847 -4.255110456950775 15.03996898186156 0 0 0
218 0 2 0 6.541061968324651 16.14581788754044 2.9693684132948444 0 -1 0
977 0 2 0 5.269282923465657 13.576473714879068 7.143711199476927 0 -1 0
563 0 2 0 6.660660443099446 15.340261501105203 13.473061744015402 -1 -1 0
478 0 1 0 6.819126656706142 12.450798178823925 1.7312580605171726 0 0 0
1047 0 2 0 9.797404146559591 6.395719230044113 2.819055419840326 0 -1 0
737 0 2 0 3.8286023611937936 12.001830110287889 12.354601808485478 -1 -1 0
376 0 1 0 6.178787101995139 7.03314769078495 11.9162955289417 1 0 0
1151 0 2 0 8.684117114974686 7.202604393171678 7.133912241608712 0 1 0
370 0 1 0 1.2387663124560866 18.418370975697556 3.1311617184074523 0 0 0
143 0 2 0 10.071369286037296 -1.0197614274488134 6.017101217263879 1 1 0
835 0 1 0 -3.495835036289358 10.086379972227322 -0.7708900929357951 0 0 0
468 0 2 0 -4.3600647445627105 17.843798947133408 5.180170762057215 1 0 0
1165 0 1 0 -1.9388678742231074 6.140692184991264 1.183397766822896 0 0 0
599 0 2 0 10.740953799688018 5.0359633141599875 11.292482733746727 0 0 0
1077 0 2 0 -0.3283175679089036 6.406467358455546 -0.009563087936378056 1 0 0
976 0 1 0 4.47038116414966 13.288128303684068 6.698067369074775 0 -1 0
1050 0 2 0 1.0372029930319395 0.6540768169236602 11.344971637424987 0 0 0
2 0 2 0 6.939543133865925 -0.8854666698660028 13.672532486871624 0 0 0
553 0 1 0 1.0046816533749814 2.449573483402533 14.418435332583009 0 0 0
1281 0 2 0 11.520255240012126 6.738274445796317 5.567844750730404 0 0 0
227 0 2 0 -5.3330787115559 13.147160436439616 9.667916404362883 0 -1 0
142 0 1 0 11.01801212123904 -1.1839904340295846 6.165359210046574 1 1 0
1095 0 2 0 8.282937317684528 0.0347687322652146 1.1333442529893931 0 0 0
1041 0 2 0 3.1678416563448453 3.953436188759235 5.5095893176118445 1 0 0
714 0 2 0 2.6623358076439905 8.47091801266911 1.8352251440856566 0 0 0
823 0 1 0 13.062256660652487 2.505062264510623 5.104941076436861 0 0 0
287 0 2 0 0.7531117186740839 9.245172323695055 9.550270937510435 1 0 0
616 0 1 0 3.515979911329782 7.6225897216196135 0.6922315592622881 0 0 0
1209 0 2 0 -4.544590277899626 20.484291871584706 0.5251236458490256 0 0 0
226 0 1 0 -5.131058681221883 12.35145841275823 10.171428191073812 0 -1 0
786 0 2 0 -0.7547464759889442 14.260073794792014 9.583655596286746 0 -1 0
301 0 1 0 4.653639363947932 1.86481477799487 2.0546120900472484 0 0 1
743 0 2 0 9.753706766495926 -1.2647668008011137 10.065227260942832 1 1 0
97 0 1 0 3.957475545264232 9.311596598252315 8.486239733305784 0 0 0
899 0 2 0 2.5284695720995125 13.786509781800202 2.0514835346279416 0 -1 0
341 0 2 0 3.7574279206683845 14.37749500479876 12.532571571458487 0 -1 0
78 0 2 0 5.4219536895598175 5.113031696705063 9.530176598789094 0 0 0
1018 0 1 0 4.800762045479423 15.185905323120918 4.751716885203709 1 0 0
993 0 2 0 -3.856852218720145 13.12586027608043 11.600284214762752 0 0 0
820 0 1 0 -0.35098297581305005 -0.6256078876355406 8.702400943134315 1 1 0
329 0 2 0 -2.4832853402715167 10.303087819404178 4.830295846189616 0 0 0
1144 0 1 0 9.04624632353722 4.607743048879826 1.323438551935542 0 0 0
812 0 2 0 6.029608835449312 -0.01086806993143652 4.1198123736587595 0 0 0
1112 0 2 0 6.672171458086931 9.119954533059785 14.366540565634761 0 0 0
352 0 1 0 -2.0048158280339647 7.245583512540422 9.107048625640866 1 0 0
353 0 2 0 -2.2404439280611537 8.04520250556306 8.572592831022193 1 0 0
203 0 2 0 0.3324539909868553 16.506297929857578 11.714158358953618 0 0 0
915 0 2 0 6.226848906348167 6.291019271516259 6.181876981764967 0 1 0
176 0 2 0 4.082126764767888 1.4366742251825775 13.261303686339952 0 0 0
978 0 2 0 4.719433629169267 12.379472826695618 6.440855637156566 0 -1 0
733 0 1 0 7.796374382646513 -1.8350657103830308 7.28116551167243 1 0 0
334 0 1 0 8.084586890313927 11.971019540213838 8.130300666085981 0 0 0