LAMMPS data file via write_data, version 23 Jun 2022, timestep = 88108000

2592 atoms
2 atom types

0 30.923 xlo xhi
0 21.319344 ylo yhi
-0.8468768575147223 31.569471857514664 zlo zhi
-9.137482 1.1319472248501672 -10.653504440941566 xy xz yz

Masses

1 1.008
2 15.999

Atoms # full

1067 0 2 0 0.6648731122942615 0.6704734586484564 12.140423209613882 0 -1 0
340 0 1 0 -0.925596026015343 15.479068358268863 0.6388221495917401 0 -1 0
224 0 2 0 11.334774149786313 7.780855916492136 0.9932298259191121 -1 -1 0
441 0 2 0 -1.3406100744147547 14.209594461331816 3.7819060237141304 0 -1 0
1072 0 1 0 7.284614426719564 15.545412717660389 0.7455958139753283 0 1 0
783 0 2 0 2.7170615288692312 15.62968087695121 4.154855034877701 1 1 0
975 0 2 0 7.42152611418506 1.2411192066362728 7.026002140371496 1 2 0
773 0 2 0 -4.741358117198255 13.038086539757451 14.039458713323148 -1 -1 0
488 0 2 0 5.489157332852464 19.76302685722995 1.1599542286043296 0 0 0
688 0 1 0 2.683477234550389 7.8418261831243585 14.685832043716491 0 1 0
292 0 1 0 -5.099214918813977 15.149663483632892 5.77349945420667 0 0 0
375 0 2 0 -5.364923296076048 12.089672399315178 5.819065144366745 1 1 0
760 0 1 0 3.938998520874905 2.7768027316930137 2.6491648146243327 -1 0 0
663 0 2 0 3.5087643367765926 7.8913648677834995 0.8931909245016618 0 -2 0
831 0 2 0 6.845828998403206 15.962629660138916 6.254690740570385 0 -1 0
992 0 2 0 0.6535337849617058 5.063021338137933 8.987912918021166 0 1 1
2161 0 1 0 2.2572023492692215 3.3792144083076434 -0.7749052395650337 0 0 0
342 0 2 0 -0.06949036848247057 15.10025694187817 0.7823179253164327 0 -1 0
894 0 2 0 8.098245358614713 3.9052884583885574 3.6406746555163405 0 1 0
205 0 1 0 10.391983985950192 4.8306299490180535 1.3957385963643358 0 0 0
888 0 2 0 -0.8538067371857814 16.505997573025248 12.474163135083227 0 1 0
1150 0 1 0 6.4483958466611915 -1.5926742955390945 8.077832780959445 1 2 0
60 0 2 0 3.224998939547851 2.1749609891349566 13.61322337537311 -1 0 0
312 0 2 0 3.550424009342578 12.511678102442815 13.75609320978198 0 0 0
379 0 1 0 4.638680650523095 3.189512428493906 13.051043888152824 1 -1 0
917 0 2 0 12.40945685474469 -2.087317164244277 12.35728283505399 1 1 0
821 0 2 0 0.3293160067270029 17.16947600466534 6.283027758613087 1 1 0
1219 0 1 0 6.5786345217267455 0.3895589983453407 6.048482589219919 1 2 0
332 0 2 0 4.00837798518853 5.13058276673194 5.372928792413946 -1 0 0
343 0 1 0 -2.5682575988634895 14.909053819846417 6.541747408208714 1 1 0
635 0 2 0 10.583742801940996 1.7805025677568296 2.670638149802188 0 -1 0
1002 0 2 0 3.381988831159386 -0.37838125501999587 2.290055742589875 1 2 0
323 0 2 0 1.3807074497255973 10.381914277417895 14.6768627281459 0 0 0
703 0 1 0 -3.7240531138451494 11.848434231240528 7.845734599362768 1 0 0
89 0 2 0 2.702373618510261 -2.332214722219934 13.684989462423351 1 0 0
2473 0 1 0 2.175136097114047 0.45851730332382123 -0.4219569131480388 0 0 0
628 0 1 0 5.615099341619004 2.6144383809261047 4.749530609754291 3 1 0
2450 0 2 0 -3.5920008059536155 17.841004762975317 -0.2706444181114718 0 0 0
747 0 2 0 9.988708681911366 1.7600059211936419 13.378980482798127 0 0 0
607 0 1 0 3.5702185399050115 -0.18938702240097172 5.83375219226176 0 1 0
479 0 2 0 10.43097465887758 -3.248295348428236 13.915932735391078 0 1 0
592 0 1 0 -0.7146629962312088 8.71297783674375 9.058628975738676 0 -1 0
814 0 1 0 14.625126568050097 -3.942463598315316 13.056307918078565 0 1 0
495 0 2 0 -2.5130836700580184 16.60289658730303 3.5042860718834135 0 -1 0
1004 0 2 0 -3.2244833091978364 6.214522770222352 8.48086442347283 0 0 0
1121 0 2 0 7.428374038013149 17.35299585726568 -0.4718571598420459 1 2 0
2 0 2 0 10.695399430323027 3.717409937261719 12.979783390248423 -1 -1 0
638 0 2 0 0.2412852306971934 11.234388057046377 0.5929998901946341 -1 -2 0
202 0 1 0 -0.4477555045583842 18.286475101830497 -0.023363626106194135 1 1 0
272 0 2 0 0.13257978558612726 16.39650772820016 10.801273376518305 -1 0 0
27 0 2 0 -1.0237893644243312 10.165011961716067 4.152105993346845 0 0 0
415 0 1 0 -7.301406016657766 17.027960847134196 11.666640321126023 2 1 0
1289 0 2 0 4.797313558364382 16.28601644003996 2.9435392449156 0 -1 0
629 0 2 0 5.146662436301889 2.7306150309263995 3.8794689859740377 3 1 0
900 0 2 0 -4.970168659159601 15.351589496141862 13.158981250436947 0 -1 0
710 0 2 0 1.7937278969653476 -0.6456313095177268 8.212489304152491 0 0 0
1123 0 1 0 3.4905123528126456 11.841491726721372 2.784011127788329 0 -1 0
376 0 1 0 -6.042046581436046 17.684067150088683 2.4525267182182113 1 0 0
311 0 2 0 4.985691836126126 12.229210097623362 13.13860491000804 0 0 0
1145 0 2 0 7.5547797033333435 -0.1959716123644215 14.514665155063659 0 0 0
899 0 2 0 -6.107743038000082 15.691500856210684 12.174200938348225 0 -1 0
596 0 2 0 -0.8062343848856386 2.304151502980967 3.504861454474379 1 0 0
637 0 1 0 0.3359599625402113 11.849187254477876 1.3309850766595974 -1 -2 0
872 0 2 0 -3.531905184947178 6.419184874658563 14.802000911382402 0 0 0
940 0 1 0 -3.5811470174022153 11.955344056255315 5.107321399423848 0 -1 0
44 0 2 0 5.192860043116198 0.016927859553771185 12.824323533835662 1 -1 0
636 0 2 0 11.983000215161876 2.11298851186469 2.0540956625567195 0 -1 0
203 0 2 0 -0.5791506660062562 17.324419892091118 -0.01111458995323733 1 1 0
1231 0 1 0 4.007290874028074 9.846241570694865 4.911857138465461 2 1 0
849 0 2 0 2.2232324240211025 13.604261406123388 4.868310577065347 -1 0 0
330 0 2 0 0.7692224583487289 14.577309418866745 14.829921077023045 0 0 0
482 0 2 0 -1.4535398018703165 5.500459822871429 9.558507177955608 1 0 0
1153 0 1 0 2.920565183342746 5.069415130088465 1.4967004857411252 0 0 0
986 0 2 0 7.465889995503494 6.0612286737663625 4.7126827540619205 0 -1 0
517 0 1 0 -0.868982183198372 7.747313676919944 -0.5683739717991696 0 0 0
204 0 2 0 -0.5715379027106872 18.526112725435194 0.8836238492074904 1 1 0
550 0 1 0 -0.08841762350575207 0.22743173767613423 1.4716849653663475 0 0 0
94 0 1 0 7.6657752110920825 12.42895822027166 7.933004439332612 1 -1 0
746 0 2 0 10.21603118120766 1.8309232285096497 14.881307550680853 0 0 0
193 0 1 0 -1.6997663823864708 13.658566348435203 12.983328260096588 1 -1 0
687 0 2 0 7.251302529588879 1.318546875848928 12.005939897681781 1 1 0
333 0 2 0 3.499052606922362 6.089715826733352 4.450888199528603 -1 0 0
808 0 1 0 2.845482913084342 -3.8692666736285295 14.420369735132983 1 1 0
480 0 2 0 11.429302880779728 -4.250736177187037 14.419008046784892 0 1 0
341 0 2 0 -1.3903211059322478 15.4392396585452 1.4842577538926771 0 -1 0
575 0 2 0 7.180774795583251 3.8686249812738813 1.7249839860269272 1 1 0
562 0 1 0 7.148274756968619 8.80381257981745 14.284641803640115 -1 -1 0
472 0 1 0 0.23193517441106337 -1.530344954587147 11.879052692119359 0 1 0
1184 0 2 0 1.8117679242660545 10.125414509827221 8.181905835451142 1 1 0
806 0 2 0 8.164504606953784 1.0345897471266823 9.229738896253366 0 -1 0
423 0 2 0 1.705626586701709 19.04915065736811 2.1018101714601456 1 -1 0
1285 0 1 0 6.888485273827913 13.407187028276175 4.161098192156724 0 0 0
717 0 2 0 -3.995984354536672 15.070673012217792 11.499375454785245 1 0 0
568 0 1 0 5.7657126930451845 8.804728618839555 3.3155729876846873 1 1 0
771 0 2 0 5.398965479816494 5.364370680863921 3.0828566525113965 0 0 0
382 0 1 0 -7.969506085247241 15.100478748270938 14.752631594011092 0 -1 0
1103 0 2 0 6.968677201359133 11.96669920124426 12.990881828898953 0 -3 0
669 0 2 0 1.117930410544518 20.834820447240645 0.35819214255924137 1 -1 0
198 0 2 0 4.149204178549526 10.390857489254557 14.245634600087095 0 0 0
1252 0 1 0 5.809978412843039 0.506901903730637 14.459799480536145 0 0 0
397 0 1 0 2.978255763563319 11.56812687221248 -0.09145102509323533 2 2 0
45 0 2 0 4.37147497312804 0.42617155276105656 11.588808763012711 1 -1 0
1016 0 2 0 -1.0388704352516913 12.21763633869848 9.341366610528748 1 0 0
770 0 2 0 5.549843326091803 5.148410996957655 1.4091440692873136 0 0 0
930 0 2 0 12.475119679040985 1.055234340061685 7.7832732356956065 0 1 0
422 0 2 0 3.0269003697938617 19.656413057642308 1.5603946561856694 1 -1 0
774 0 2 0 -3.963304782659072 11.768815745956497 13.851380194987579 -1 -1 0
405 0 2 0 -2.624161208288206 19.570993673150237 1.004020154775423 1 -1 0
2336 0 2 0 3.686198002224504 14.499609136247795 -0.8452612407332344 0 0 0
417 0 2 0 -7.45152675182082 16.50957812289012 10.895999755266168 2 1 0
486 0 2 0 6.9375459439729426 6.117851704815388 12.874482121915522 -1 -3 0
391 0 1 0 5.4584133920059195 6.779415912206568 6.9822219891668516 0 0 0
449 0 2 0 9.577246008505483 10.156601968831874 6.82513781207072 0 -1 0
308 0 2 0 8.156090304313587 12.878445081643033 0.6098641140462588 0 1 0
66 0 2 0 -0.4741505305096867 17.363493006379095 2.98445768605977 1 1 0
1211 0 2 0 1.5401878409911696 8.206492341023935 0.03669674098323916 0 -1 0
37 0 1 0 10.095637868638615 -0.15728058404182566 5.797640071947387 -1 0 0
563 0 2 0 6.793857727685275 8.064518783533437 13.852199054171004 -1 -1 0
1232 0 2 0 4.560711920265643 10.446946532752241 5.444166968993767 2 1 0
593 0 2 0 -0.5928436222332533 8.359987105702267 8.188354982069788 0 -1 0
1071 0 2 0 -4.159130834112565 11.88930875719986 11.695012400054553 1 0 0
686 0 2 0 7.487642972275317 2.40150047335094 10.894782960823825 1 1 0
395 0 2 0 -0.3910382780348709 5.4013578123529555 2.086857471483349 1 -2 0
2163 0 2 0 2.527722673219553 3.9853920909967155 -0.04768456209037131 0 0 1
745 0 1 0 9.822501695791056 2.30803754713249 14.156076466868079 0 0 0
183 0 2 0 -5.21752988143363 12.977671532889154 2.4174488466471207 -1 0 0
871 0 1 0 -2.626232731734171 6.103057165669526 14.947347529212758 0 0 0
478 0 1 0 10.540630695173126 -3.8720534403822073 14.615332803728965 0 1 0
667 0 1 0 9.765408892893955 0.10197860427988337 -0.2665648785332061 1 0 0
485 0 2 0 5.726117575222344 6.618609990027318 12.032064552467652 -1 -3 0
1218 0 2 0 8.888539090739187 0.8626008277270059 3.8886129407404795 -1 1 0
1242 0 2 0 6.056706221386731 10.36210805111739 9.328215047973854 -1 -1 0
589 0 1 0 -2.044522587761287 7.959431556730357 11.433252327621096 0 0 0
160 0 1 0 3.7580507904012554 3.74015152770419 6.526407937988091 0 0 0
388 0 1 0 2.3013053251559468 13.310003781585948 15.024799723245033 0 0 0
966 0 2 0 3.3567474328142333 2.1522550664016586 10.022015393209251 0 1 0
232 0 1 0 2.390671870741988 14.484228859977438 12.161122202312047 1 0 0
1469 0 2 0 4.240251041088395 16.429432579816122 13.727373104361465 0 -1 0
42 0 2 0 8.268488783354535 14.533928686418507 7.5051156811668065 0 1 0
820 0 1 0 0.32046392944804436 16.216182066005008 6.206075830711203 1 1 0
595 0 1 0 -0.6759718001444788 1.532718757111394 4.027554320642716 1 0 0
1204 0 1 0 8.276951958386665 4.812744380617606 12.8516714902649 -1 0 0
368 0 2 0 10.289436317840211 5.9119747066464665 7.986229434777421 0 0 0
36 0 2 0 -1.0656231573692354 8.1508477554737 14.499323950373975 1 -3 0
782 0 2 0 2.6668444111208585 15.505666034368435 2.6208456703199183 1 1 0
803 0 2 0 9.579923075576211 6.619961522407427 15.275341282769375 0 0 0
84 0 2 0 5.290941353003165 3.4638234397225434 -0.38927393318670833 0 0 0
54 0 2 0 4.133186964764802 8.859097557159727 11.295243420247191 0 0 0
789 0 2 0 7.233570677040461 15.117018716476432 10.96495280510805 1 1 0
387 0 2 0 2.156249785858346 16.119626814095714 9.363694151280306 1 -1 0
338 0 2 0 -0.3577922566558014 6.822166855247783 6.116274072212148 0 0 0
406 0 1 0 1.616921917630517 6.938512185867697 12.357090029450742 1 1 0
973 0 1 0 7.686040926271252 1.8140831031924152 7.770230850940459 1 2 0
965 0 2 0 2.2373326061732204 1.396083545292277 10.858432453194151 0 1 0
953 0 2 0 6.603610219568693 12.086385504791814 5.156682859028038 1 0 0
2372 0 2 0 8.040189994754366 2.4356419948696937 14.559576549381275 0 1 0
1282 0 1 0 7.950437120307748 10.584186037394208 12.281443636755252 1 1 0
2532 0 2 0 9.421361268183594 7.459506052180842 3.156549430053496 1 0 1
923 0 2 0 4.099430094207877 5.563176508604537 10.999901684743037 1 0 0
2208 0 2 0 9.751883765844264 7.533929835110273 -0.7127480313051167 0 0 1
661 0 1 0 4.300020045708854 7.610613077182335 1.384871521940664 0 -2 0
158 0 2 0 10.05839375064493 8.22613796040618 14.056344710509089 2 1 0
22 0 1 0 -0.041805464567362116 3.1296701678779106 14.404648893131816 1 -1 0
402 0 2 0 6.145685901317594 -1.5371625289485622 11.402118404119785 0 0 0
2199 0 2 0 10.452146145320917 3.4947144000035064 -0.2853935036464028 0 0 1
1230 0 2 0 3.8217232708159266 19.091365816384048 4.509071440614394 0 -1 0
273 0 2 0 0.6870291540820257 15.215573361595226 11.781359701346382 -1 0 0
1182 0 2 0 12.67697952206662 0.7253819233344689 14.882272624683562 1 3 0
590 0 2 0 -1.6515424278226711 8.218689488851227 12.230203844451633 0 0 0
1468 0 1 0 3.5848916114564044 15.879020440333505 14.218862107696662 0 0 0
2335 0 1 0 3.8287897683241776 14.865689914000914 0.05022139541770454 0 0 1
1287 0 2 0 6.634792494328657 14.144581971163282 4.782301546393786 0 0 0
689 0 2 0 3.1773360449721464 7.073530463990856 14.886164031424613 0 1 0
952 0 1 0 6.375249889029699 11.518424362984804 5.89199951671607 1 0 0
1240 0 1 0 6.227528180336318 11.071376406304534 9.933201789943272 -1 -1 0
1159 0 1 0 0.9226137173239982 9.769077239079898 12.958345017405197 1 0 0
411 0 2 0 12.355524355545791 0.6769164291290743 11.314352696315375 0 2 0
1010 0 2 0 7.945031433206149 -3.395492815259635 14.514050935743613 0 1 0
17 0 2 0 1.7627439987063565 -1.0274405977928138 4.184081629317317 1 1 0
913 0 1 0 0.5136192990231254 13.119001572088049 9.449622099860585 -1 0 0
737 0 2 0 5.45286258799194 6.2621786719119 14.527719340052853 -1 -1 0
404 0 2 0 -4.152914105522246 19.38166948204613 1.400156020245666 1 -1 0
1035 0 2 0 8.041516716289046 7.7942653962472335 10.145883635394158 0 0 0
914 0 2 0 0.6867471532279967 12.911373894298402 10.382079974539641 -1 0 0
511 0 1 0 1.709277088539138 9.014808674444438 3.1428170486329763 1 0 0
1260 0 2 0 12.649646411471052 0.9458407037802647 0.17025557329668684 1 1 0
210 0 2 0 6.147122752732149 14.389374189371054 9.145894961574822 -2 -1 0
630 0 2 0 6.388698090132413 3.2006125349386645 4.75025731625963 3 1 0
881 0 2 0 15.028908872010563 -3.5431705432874603 15.011588134845933 0 0 0
1053 0 2 0 2.740547309647113 9.156146170173644 6.225403819811729 1 1 0
929 0 2 0 11.248691274756025 1.2615519699529814 8.657051560661891 0 1 0
2367 0 2 0 0.7345953559451858 1.579458206792935 7.575025569124318 0 1 0
1470 0 2 0 3.9911873898328425 15.560477305880223 14.994035608777569 0 -1 0
985 0 1 0 7.286412666498015 7.007340409817005 4.80391089136558 0 -1 0
197 0 2 0 4.069625044330843 9.085863523085209 15.09185134921869 0 0 0
1115 0 2 0 -1.4858170569451752 2.576809390555285 7.883461048367915 0 -1 0
307 0 1 0 7.437191818573118 12.269007597174879 0.6070606217475043 0 1 0
605 0 2 0 2.608009470543921 18.909858411080723 6.263216902017332 0 0 0
421 0 1 0 2.111062973581784 19.9077301065668 1.8325155381754636 1 -1 0
1018 0 1 0 -2.5966658826576783 12.803167050918727 1.22963832520335 2 1 0
2198 0 2 0 9.76439200867907 2.1603532163988675 -0.5423442247654664 0 0 0
1058 0 2 0 6.6707816408206355 9.597778814524721 6.864213032081047 1 0 0
229 0 1 0 6.954352529090722 -1.0118634088542688 3.6432968667769536 -1 -1 0
73 0 1 0 -0.48978313387351513 17.556888605664092 9.735533675222936 0 -2 0
309 0 2 0 6.733251159368759 12.645071070734616 1.175912975546399 0 2 0
162 0 2 0 2.9290732252008644 3.3229567087130474 6.21425840644087 0 0 0
90 0 2 0 3.3862988865284924 -1.0082874781451716 13.084490355565501 1 0 0
271 0 1 0 -0.07437484294067864 15.699330191928397 11.481496589936187 -1 0 0
614 0 2 0 -4.208466046764792 10.552952048231731 4.129652230740687 0 1 0
949 0 1 0 0.9731720953562436 12.435993615434363 3.985175505163835 1 2 0
1157 0 2 0 -1.9351703500328292 17.906796136822805 5.918912084282797 0 -1 0
2366 0 2 0 0.6175784485925753 2.790244219176361 6.592366335978563 0 1 1
822 0 2 0 0.7010535939444664 15.81696297726561 6.985641013295513 1 1 0
606 0 2 0 12.683808930331296 -2.133654387759652 7.4383383379081405 0 1 0
816 0 2 0 15.261795992237582 -4.14749497821534 12.298297362279023 0 1 0
443 0 2 0 3.151931947452558 11.365114779446492 10.318701303902335 0 0 0
1229 0 2 0 4.823942278182734 18.467426464321182 5.495389675706722 0 -1 0
1243 0 1 0 0.9565347174047761 -2.320817920226989 7.723176027196354 1 0 0
1155 0 2 0 3.457269088657444 5.886129539603708 1.4995423305298008 0 0 0
744 0 2 0 -1.4794527629221523 3.2469267358162472 10.18952988631286 1 1 0
401 0 2 0 7.306092066835323 -2.137415432592042 10.545306679980875 0 0 0
1156 0 1 0 -2.52521023149352 17.421017413276594 5.296987412398644 0 -1 0
1013 0 2 0 9.825520179685988 8.078244571644868 5.354507825126049 0 -1 0
1283 0 2 0 7.787426010111158 9.783557742393914 12.802882608891856 1 1 0
2451 0 2 0 -3.618052828339735 16.30035759462191 -0.7702935546617333 0 0 1
1174 0 1 0 1.8872273836982332 0.9805748649780748 3.846839438587378 0 -1 0
1125 0 2 0 3.9857193530655493 11.189414436983775 3.2843331751742637 0 -1 0
400 0 1 0 7.10229450002608 -1.573572551589188 11.298482931721674 0 0 0
88 0 1 0 2.5546456940909 -1.4928176517088088 13.258942015555716 1 0 0
11 0 2 0 7.698044587580319 4.107697010708298 9.308719249319877 -1 0 0
1226 0 2 0 1.0431608658371756 6.431921247217832 3.5011888956987276 0 0 0
155 0 2 0 9.954994380186788 0.8730721107946229 11.195095123095031 0 1 0
228 0 2 0 0.695884726048234 8.60119426351086 9.772700030975134 0 -1 0
551 0 2 0 0.7003917640205907 0.3085190286926984 0.8289476297023137 0 0 0
898 0 1 0 -5.543445725767087 14.916116765962908 12.446818169618938 0 -1 0
315 0 2 0 -2.8835231199648 15.996964140947792 9.521503792296075 1 -1 0
554 0 2 0 9.352216527924389 -1.5957056157277818 6.133351617050443 1 2 0
761 0 2 0 3.182413784821587 2.1651748064187886 2.9686944841359533 -1 0 0
1284 0 2 0 7.398251802684368 10.41333184386022 11.483398905865988 1 1 0
2305 0 1 0 -0.24547413460534165 10.30270521128271 -0.6946805740524954 0 0 0
461 0 2 0 1.4072969495749605 -0.656373315085852 14.494921825811467 1 1 0
1111 0 1 0 3.0902725784101017 -1.7726749846165866 10.468381737795474 1 1 0
76 0 1 0 -4.877929548303779 7.626254555012765 14.660566378988433 1 0 0
616 0 1 0 -0.06714653487476227 15.532251070225552 3.552588746854428 0 -1 0
749 0 2 0 4.696952226167728 3.3708083163694402 14.868324494805119 0 0 0
18 0 2 0 -7.325307761750889 18.938964256223418 3.4393771082582347 1 0 0
869 0 2 0 7.520771957316751 6.252976312949933 2.285183816156798 0 1 0
1180 0 1 0 13.392533486466734 0.7665533937908426 14.226652271940342 1 3 0
10 0 1 0 8.19279753108391 3.858141396865861 10.073697156388222 -1 0 0
1195 0 1 0 -1.9142505021969953 4.320328763864544 0.2196002564664623 0 -1 0
196 0 1 0 4.575799127762761 9.91610284887493 14.99295345687554 0 0 0
46 0 1 0 -3.4655847888219395 9.173770916602274 6.32943236493399 0 0 0
344 0 2 0 -2.4036892834635872 15.696753450188508 5.984324341631569 1 1 0
1113 0 2 0 2.8692830206990307 -2.625671640816747 10.895756919547026 1 1 0
310 0 1 0 4.086486248449964 11.839046575872064 13.312575763290523 0 0 0
1085 0 2 0 8.71887206246477 13.703678080532468 4.062192627482611 1 1 0
553 0 1 0 8.673809558070499 -2.250030797698268 6.356066189447069 1 2 0
807 0 2 0 8.169966164425091 -0.10248962389905714 10.307952761560074 0 -1 0
207 0 2 0 11.04317589855694 5.560511325092272 1.4572638509379936 0 0 0
642 0 2 0 -3.3128770717559277 15.67176051725534 14.844730991324418 0 -1 0
1059 0 2 0 5.952689782887078 8.422344853575028 7.447227966586793 1 0 0
38 0 2 0 10.575227410331122 0.2873609321072754 6.532346203721763 -1 0 0
1205 0 2 0 8.518975924338006 4.632838978279643 11.927259834555173 -1 0 0
1212 0 2 0 1.7326583701527039 8.990383297041467 1.3887613690602705 0 -1 0
1217 0 2 0 8.466152102330819 1.8239730101586444 2.7371079377355505 -1 1 0
777 0 2 0 7.960446034316401 10.665414714213583 1.5447876802220333 1 0 0
167 0 2 0 14.902590423694367 0.7381757682922775 1.2301576605518578 1 2 0
892 0 1 0 7.860758057595058 4.187607954465362 4.523598439918236 0 1 0
65 0 2 0 -0.8673106754387923 18.933669999160152 3.2623425102323154 1 1 0
640 0 1 0 -3.7778298993261394 16.1378958177712 14.183182072825513 0 -1 0
2371 0 1 0 7.140261883783583 2.7906034479311934 14.718510687269264 0 1 1
1273 0 1 0 7.403827858050389 -0.17245767332391043 0.9605139032942973 1 1 0
1066 0 1 0 0.7354322050128419 1.5292674359715983 11.792328932884542 0 -1 0
377 0 2 0 -6.753865300343006 17.243495557562053 2.913461766174305 1 0 0
1254 0 2 0 6.077660861423002 1.4744863403587631 14.603279496399521 0 0 0
762 0 2 0 3.473213007726237 3.4621079764635283 2.1800949367105846 -1 0 0
564 0 2 0 6.4021587270656255 9.322618034480767 14.673173521727827 -1 -1 0
1163 0 2 0 2.256278402874324 17.59353560490314 4.268437730172902 0 -2 0
1052 0 2 0 1.8509331159273308 8.051057967918888 6.829975581363727 1 1 0
328 0 1 0 -0.02128887877310104 15.091240662602363 14.736488838899405 0 0 0
2307 0 2 0 -0.5787663503265119 9.37160985672485 -0.5891192482258913 0 0 1
317 0 2 0 11.410370044501425 -2.0791293443917795 10.346148366130222 0 1 0
971 0 2 0 4.979338062972932 14.291936590956698 1.2079051763248705 0 0 0
662 0 2 0 5.078686943906321 7.675410272895379 0.8194616986613206 0 -2 0
613 0 1 0 -4.6299235526648 10.090278024048143 3.369410429173291 0 1 0
1152 0 2 0 5.637772699239911 -2.0837039058410065 7.925331909537908 1 1 0
439 0 1 0 -1.765416209742641 13.338889399047988 3.6552888279381284 0 -1 0
92 0 2 0 11.105682485500784 3.1662586689448546 5.984159535713437 0 -1 0
1144 0 1 0 8.477494278965537 -0.39792109371567896 14.732629167861866 0 0 0
870 0 2 0 8.888476926871148 5.863943597263959 1.6681326249135902 0 1 0
1020 0 2 0 -3.142786799850531 13.326288609760546 0.6432242934937407 2 1 0
769 0 1 0 5.98139822458555 5.252765393774457 2.288177442137763 0 0 0
1160 0 2 0 1.0669157997552878 10.495759841107393 12.340117358916215 1 0 0
464 0 2 0 4.933939680686907 1.6540805490366648 1.0960505763546138 0 0 0
844 0 1 0 4.068151227273949 3.570308219784798 9.27107420996368 0 0 0
690 0 2 0 2.582859181298079 7.813682784000708 13.693964045020717 0 1 0
2343 0 2 0 7.124278824942342 10.792571076738769 -0.5460506492891237 0 0 1
2487 0 2 0 4.503658929512981 18.229451457903046 -0.16882209413014526 0 0 1
1056 0 2 0 5.5856476213040755 4.2861694370239265 8.491431263603584 1 0 0
1183 0 1 0 2.1708876041230787 10.881282753185475 8.65805882237398 1 1 0
1175 0 2 0 1.0977081107688067 1.2985616052090734 4.278286181033186 0 -1 0
809 0 2 0 2.2442974175900288 -4.56517030219149 14.491956912374032 1 1 0
1519 0 1 0 6.51752972849952 17.44416929047481 8.714461487231386 1 -1 0
569 0 2 0 6.17049204431945 8.123453967466844 3.876291224060015 1 1 0
1068 0 2 0 1.234104470655112 2.0401974393028786 12.459847512728633 0 -1 0
1276 0 1 0 12.015311616005397 0.015062987536605288 3.963147900301311 -1 -1 0
1206 0 2 0 7.935041312808459 3.9313387243156015 13.136145679559638 0 0 0
513 0 2 0 0.798549538703215 9.409758690312882 3.2314939887319793 1 0 0
928 0 1 0 11.630162245314535 0.7223194067829946 7.915421492964693 0 1 0
824 0 2 0 9.811973153469818 -0.7521971682291575 9.201263257283594 0 0 0
6 0 2 0 -1.9565705269071643 10.032106307511144 1.7350382138945202 0 -1 0
574 0 1 0 7.7590735093289425 3.0871832306968767 1.7033888400338637 1 1 0
369 0 2 0 8.727028001188991 6.258167035582064 8.254289794388592 0 0 0
52 0 1 0 3.532905787903358 9.435853280320824 11.73866848417808 0 0 0
339 0 2 0 -1.3157646760703967 6.419039260365551 7.399504354799181 0 0 0
1102 0 1 0 6.401182412464845 12.757761225059504 12.938227185114648 0 -3 0
825 0 2 0 10.656180426017803 -1.6795249949657298 8.218838162976398 0 0 0
47 0 2 0 -2.533816613644659 9.03820268283636 6.415053226007589 0 0 0
2530 0 1 0 10.21806153637411 7.6201932216811805 3.689946384498353 1 0 1
950 0 2 0 0.14299652204236074 12.390728711837479 3.4361137040557175 1 2 0
1286 0 2 0 6.347373418355196 13.660617416859377 3.376458446458983 0 0 0
591 0 2 0 -1.647139689259018 8.326305603962695 10.685864671876596 0 0 0
85 0 1 0 11.858000996248295 5.498540450784011 8.53378894422212 0 0 0
2531 0 2 0 10.799523797873777 6.823372945954574 3.6874347885195533 1 0 1
1082 0 2 0 3.9424761836963227 -1.575001832621982 4.568189013118977 -2 1 0
74 0 2 0 -1.2591955166875606 17.282365206342455 9.179789352111854 0 -2 0
34 0 1 0 -1.4309010088048546 8.907427112345758 14.0041963688592 0 -3 0
1001 0 2 0 3.3315543946511705 -0.2634797331927282 0.7373146362613154 1 2 0
416 0 2 0 -8.046320048184231 16.78878341116704 12.29493925025504 2 1 0
716 0 2 0 -2.548000493300427 14.672272065627718 11.45875507779087 1 -1 0
50 0 2 0 -6.563088957964491 14.081249923923558 14.820918622375922 2 2 0
465 0 2 0 5.159890156565277 0.9426281109062231 -0.21800302844418573 0 0 0
507 0 2 0 -0.07432983470133414 12.662785306010985 12.37528051487363 -1 -2 0
296 0 2 0 10.044380149716522 8.442547950019623 10.744105847978384 1 1 0
1112 0 2 0 3.6642818569301276 -1.2889460639672805 11.074503151961494 1 1 0
964 0 1 0 3.1432664034423805 1.370897778364848 10.487950865048454 0 1 0
704 0 2 0 -4.190377910729097 12.680765802980757 8.143402126285768 1 0 0
743 0 2 0 -0.8979409971707224 2.13970248082888 10.995022801050785 1 1 0
775 0 1 0 8.194438580920036 9.87011688479699 2.081343162164899 1 0 0
1017 0 2 0 -2.0317462052668502 11.538594072238512 10.26805254373832 1 0 0
1000 0 1 0 3.9178255610148174 -0.3077486069613884 1.5208695086069146 1 2 0
33 0 2 0 0.1432272305810226 -3.475302736119637 15.187146517496583 0 0 0
649 0 1 0 -5.223475702647724 13.758994587535511 9.446900297505897 1 0 0
409 0 1 0 13.299304898397077 0.6813532835736229 11.534407484086907 0 2 0
846 0 2 0 3.5124214681146353 4.250411716325191 9.588869520633814 0 0 0
1007 0 2 0 2.1813876513632358 7.355217132144684 9.0221413298958 1 1 0
815 0 2 0 14.040890452584128 -3.197493896782748 12.7971745772285 0 1 0
53 0 2 0 4.000450940934279 10.297752700114744 11.951794531465842 0 0 0
555 0 2 0 8.049733957023854 -1.796928345248375 6.9649507792098 1 2 0
396 0 2 0 -0.2910956500891043 6.7274327309664965 1.3285949974866194 1 -2 0
359 0 2 0 5.637681851944933 7.687305350719246 10.198241356708706 1 -1 0
4 0 1 0 -2.831135486157372 10.140269873575612 1.3505088566980241 0 -1 0
2342 0 2 0 6.657297388404975 9.379736056449094 -0.8443734157271746 0 0 0
75 0 2 0 8.984930702826313 -2.9425789499791857 9.31197766100668 0 -1 0
385 0 1 0 1.4102911435639776 15.742660911602012 8.846823378903036 1 -1 0
104 0 2 0 1.3547050130626925 13.442284117447475 1.3748842009582738 1 -2 0
742 0 1 0 -1.6531390380380389 2.3124677520984642 10.423269475217294 1 1 0
887 0 2 0 7.465657165343451 -3.4527596088668364 12.45410851381388 0 2 0
947 0 2 0 -2.612946673054259 7.318742029219653 2.6560709911216653 0 0 0
788 0 2 0 6.881111890625117 13.557692889512477 11.20811550462555 1 1 0
713 0 2 0 8.880751667882146 2.898584305667788 7.024323745450501 -1 -1 0
444 0 2 0 3.427760091098199 12.5704577361614 11.243489303462232 0 0 0
942 0 2 0 -3.199763445795945 12.041729482673762 6.0343098881146355 0 -1 0
95 0 2 0 7.139573546283791 12.20584189482417 8.712369760892678 1 -1 0
257 0 2 0 -1.0302573336947711 0.1275889027269992 15.020975410263302 1 1 0
70 0 1 0 10.821133236716465 2.867664494069179 9.7283695298034 -1 -2 0
2191 0 1 0 -0.9226432113807467 5.442620735775345 12.79424208192857 0 -1 1
772 0 1 0 -4.118403795094578 12.632471677258946 13.439042469017688 -1 -1 0
217 0 1 0 10.260348383432788 8.87499154178186 0.4373268428974213 0 -1 0
483 0 2 0 -0.9068295987963592 5.394278496552034 11.053689162806078 1 1 0
372 0 2 0 14.793394567291653 -0.7787307904865766 8.27083702048994 0 1 0
1073 0 2 0 6.965036348471837 15.051927859815004 -0.011712082361181708 0 1 0
96 0 2 0 8.453053047208968 11.814474423604596 7.897395664302046 1 -1 0
1081 0 1 0 -4.586627669435345 19.190395705922924 4.124760868363806 -2 0 0
353 0 2 0 -7.286957313636875 17.651362670892894 6.754148096726065 1 0 0
1290 0 2 0 6.047350101190227 16.64300755784599 3.593135816905889 0 -1 0
576 0 2 0 7.442364675866032 2.679408545375653 0.8894571298499958 1 2 0
618 0 2 0 0.24038208587832002 15.643536877629018 4.4570706544134735 0 -1 0
301 0 1 0 -0.22015353176632607 12.986988758418349 6.724067513121823 0 -1 1
3 0 2 0 11.46160581844455 4.695059130156216 12.016815915033407 -1 -1 0
570 0 2 0 5.1286255074532425 8.313739663417705 2.7177147081777964 1 1 0
442 0 1 0 3.7622133930718884 12.112877845150592 10.465556641397606 0 0 0
64 0 1 0 -0.24699870365842935 18.329124037571294 2.8199102248355397 1 1 0
1274 0 2 0 8.185183933010808 -0.2162181050062496 0.39837727434955283 1 1 0
206 0 2 0 10.671055388544682 4.132045454977226 2.0090944724154167 0 0 0
494 0 2 0 -3.0557539410148347 17.102382380531626 2.1472591003596824 0 -1 0
234 0 2 0 2.8351157175984305 15.028107377991063 11.509767943205345 1 0 0
2337 0 2 0 3.9329127791941296 15.850229806427643 -0.1924308090739597 0 0 1
1221 0 2 0 6.311362657612786 1.100388080667305 5.427833876331494 1 2 0
240 0 2 0 3.5964768136523175 17.106451671807218 10.44909403048724 -1 -2 0
681 0 2 0 -5.359510834146168 15.142536104339818 2.567301684793591 1 1 0
345 0 2 0 -1.6998651350754752 14.401194571303202 6.629920310571621 1 1 0
313 0 1 0 -2.7028549886304805 16.53856220290527 8.729617034047175 1 -1 0
786 0 2 0 -6.638292771761083 18.719433575519012 -0.5887344316534096 0 -1 0
103 0 1 0 1.6142995309560444 14.359260974640868 1.587778374050886 1 -2 0
2192 0 2 0 -1.571025840793649 5.9163381122575345 13.374701474053309 0 -1 0
231 0 2 0 6.044468684569896 -1.3349463547848246 3.501607226840412 -1 -1 0
290 0 2 0 11.28206246942807 4.614648988225668 4.1223314125831525 1 0 0
1074 0 2 0 6.706749620524358 15.425438541597863 1.5276877278401444 0 1 0
843 0 2 0 9.13474365337946 -1.3029935951038163 13.356046103218745 0 1 0
939 0 2 0 -3.347492721684151 6.469095752252735 11.439936057346626 1 0 0
35 0 2 0 -0.6774820402385835 9.370844959059282 13.687232330545106 0 -3 0
705 0 2 0 -2.976594980816791 11.792420171745754 8.492929409337894 1 0 0
259 0 1 0 -3.712815275056708 10.146627311833303 14.602104675795378 0 1 0
734 0 2 0 -6.736608972935547 16.612119114872545 8.861526653131158 0 -1 0
161 0 2 0 4.496344777030258 3.18814221545811 6.231512983149651 0 0 0
841 0 1 0 9.618916646561962 -1.8834964940744565 12.71337808745091 0 1 0
58 0 1 0 2.4670774261227884 1.8294694602208104 14.121052174271096 -1 0 0
829 0 1 0 6.305594479757497 15.798062218686145 5.419248389393479 0 -1 0