LAMMPS data file via write_data, version 23 Jun 2022, timestep = 217113000

2592 atoms
2 atom types

0 30.923 xlo xhi
0 21.319344 ylo yhi
-0.8409083062324569 31.5635033062324 zlo zhi
-9.137482 1.1315303928922567 -10.649581359533 xy xz yz

Masses

1 1.008
2 15.999

Atoms # full

352 0 1 0 -7.092255840496459 19.03650787015953 5.418730541538256 2 0 0
771 0 2 0 9.255728868957888 9.764311602195242 8.336905681405984 -1 -3 0
274 0 1 0 6.479420808137092 7.435965831724837 9.401528516083346 1 1 0
466 0 1 0 2.936390287038757 7.8687021500102565 4.212637331131577 2 2 0
335 0 2 0 7.03095451243736 12.369530193592444 9.508676773555747 0 2 0
683 0 2 0 10.974105048261132 8.244492140338865 4.519583582607237 1 0 0
1284 0 2 0 3.0831780023844626 -1.092236288842873 11.752855989553774 1 1 0
1168 0 1 0 9.019399994300857 12.666770262500286 1.4325368042649376 0 -1 0
996 0 2 0 7.4213174581546 -2.768368866907097 8.54559363607355 1 5 0
1706 0 2 0 4.437031031348643 18.756653718749458 4.187393303824992 0 -1 0
110 0 2 0 0.3943559857495004 11.62936225359877 1.1347614077315142 0 -2 0
887 0 2 0 10.497287385877485 6.981393894200046 9.04930153337039 -2 -1 0
491 0 2 0 12.06633932559864 3.3637218566980316 7.715855325898104 0 2 0
2401 0 1 0 8.6328693817951 -0.6032361126083313 3.366394953367778 0 1 0
263 0 2 0 -2.0950132254963068 7.878214538601718 6.840596474945056 -2 -3 0
383 0 2 0 1.1693812848432292 11.923479434155619 4.831052525624223 -1 -2 0
1305 0 2 0 12.762190227263822 -2.197532065351023 13.489625240108714 0 0 0
235 0 1 0 8.965403296193955 1.3150354594369777 6.512663809246423 -1 0 0
786 0 2 0 7.061299874085755 5.399532564186501 0.07943267640958218 0 0 0
970 0 1 0 10.889049686835603 -0.7981675107983421 11.683695888691776 0 1 0
283 0 1 0 -0.30796524044934565 17.638656002393336 2.683478467073355 -1 0 0
180 0 2 0 4.906806963534535 -2.3055316734317994 14.951804074637424 0 0 0
1126 0 1 0 -5.643294122092079 17.204400897548933 9.169875710681456 0 1 0
69 0 2 0 4.863006863230066 16.073526066126348 4.590332888074289 -1 0 0
763 0 1 0 5.38516449813702 19.75539492428195 1.065138391147941 -1 -2 0
1185 0 2 0 -1.604735447183574 13.866820527065899 14.537601137100287 0 0 0
655 0 1 0 7.819468359306705 4.642390931170073 1.5394288695927556 2 3 0
2530 0 1 0 -1.3647320967332104 11.141171915596201 14.660477931497455 2 0 1
891 0 2 0 2.9815821101184583 10.036601087714498 -0.543927295401502 1 0 0
39 0 2 0 6.188835405698082 10.901582345683392 1.404794506359357 -1 0 0
998 0 2 0 11.079203219877936 1.0197666144495843 3.528804358397694 0 1 0
2443 0 1 0 2.8655217221450875 15.786939261601605 7.169109664497963 -1 -1 1
1387 0 1 0 -2.0379452113938448 8.912326245747803 8.740869730673218 0 1 0
265 0 1 0 4.574956643296149 6.75785590142407 13.253521453646401 0 -2 0
613 0 1 0 3.3733719259633497 0.470522912717122 2.2627131588656066 0 2 0
21 0 2 0 4.043905435467638 12.390260136951166 12.60365857131151 1 1 0
97 0 1 0 6.588023996383204 13.221311748760376 8.061580351822391 -2 -4 0
1230 0 2 0 8.036651115449319 3.2602476394351214 13.209821089701045 0 -1 0
103 0 1 0 12.406333478017498 0.17367164768350546 0.4086119278927922 1 -1 0
886 0 1 0 10.694602683413155 7.1600187036380465 9.94466864633812 -2 -1 0
1042 0 1 0 8.119836587001569 -2.7712514978314293 15.113770518114967 2 4 0
803 0 2 0 0.7028717703551148 14.725158252463993 3.4490925901109657 -1 0 0
679 0 1 0 0.9814158380981971 -0.9885550993699628 2.896698641694951 2 2 0
575 0 2 0 -2.42602584488224 12.898552041462793 4.416650586350503 2 1 0
657 0 2 0 8.131099066874757 5.208271584671796 2.2504780038502954 2 3 0
177 0 2 0 10.516006456697781 1.7092429423748006 5.728943373223354 -1 0 0
518 0 2 0 2.039292710895836 15.317909139641902 14.910660853078339 0 -2 0
303 0 2 0 10.1717044080515 6.852682381659768 6.511871505418325 0 -1 0
373 0 1 0 7.570890104424411 8.06460817691822 2.325787740390741 1 2 0
584 0 2 0 4.173391755576579 -1.1497233864433891 8.398817043482298 -2 -1 0
663 0 2 0 4.490520027870584 6.879352466742725 3.579030374780208 -1 0 0
1183 0 1 0 -1.0158243372186466 14.404874220199503 14.076608299632714 0 0 0
884 0 2 0 11.085377118522295 -3.6187726748110802 12.767344520692546 -1 0 0
440 0 2 0 -1.5516920331746917 10.782859457764859 1.077630174443274 0 -2 0
202 0 1 0 4.0604300951722525 6.43002991872001 10.5875788796055 1 2 0
975 0 2 0 4.4094664612637775 -0.012466303376479693 1.1341419466490037 1 2 0
1145 0 2 0 2.2102109003518113 6.3558151972308226 3.6504031321555823 0 1 0
1160 0 2 0 9.903425642040881 8.525149229186177 14.682142293996842 1 1 0
219 0 2 0 1.3137505751378225 0.10955006984960303 14.323325787450647 1 0 0
736 0 1 0 8.283635316773697 9.4102428929523 9.894123711328067 -1 -1 0
1176 0 2 0 -3.023389892946708 18.746034332683827 4.326827226083903 -2 -3 0
1128 0 2 0 -5.076110084602578 17.569404263591068 8.437204368721702 0 1 0
619 0 1 0 -3.8498168672341673 10.087587694605038 5.654790625709451 0 -1 0
1339 0 1 0 4.948079955009485 2.362808893526333 12.008073647637449 1 2 0
2187 0 2 0 -3.3265174633930767 16.822070480839507 11.792567025511127 -1 -1 0
881 0 2 0 2.543029416197459 7.042011253383674 6.59735124603522 0 -1 0
651 0 2 0 2.8018333037695435 6.700126403728332 0.6991692064299382 1 0 0
84 0 2 0 9.036198336412964 11.004528678414896 3.569198175014683 1 0 0
1091 0 2 0 -4.332256357482243 14.524117157451357 2.5237011995799508 1 0 0
750 0 2 0 -2.9730133424561878 5.774654345394505 8.928750393971734 1 1 0
1043 0 2 0 8.893640529490922 -2.8433361018641325 14.545976399709614 2 4 0
422 0 2 0 4.613223834408376 15.982435781370281 2.0141063233735466 1 -1 0
218 0 2 0 2.5246130410543506 -0.6235450249902916 13.730675001849088 1 0 0
29 0 2 0 -1.789360172645329 6.794601552256151 14.58284087589586 0 0 0
1198 0 1 0 12.720427150367623 -3.512723280290225 12.006102837840729 -1 -1 0
2583 0 2 0 10.380275492041605 3.990404621506092 10.375932504125155 1 -1 0
1629 0 2 0 4.052682773492682 0.5280721431410322 6.259825777848081 0 1 0
482 0 2 0 -2.056713809418543 15.259930606061499 5.424761126941697 3 0 0
1123 0 1 0 0.9945319402011246 13.993315212020237 8.512659689468252 0 -2 0
917 0 2 0 -4.821331337666992 14.303426726080222 11.63887315718572 1 1 0
111 0 2 0 1.4056540014484282 12.712565751821979 1.8737581778157741 0 -2 0
165 0 2 0 5.146092471213513 1.8595082766408018 14.474810423635132 1 3 0
2531 0 2 0 -0.9825410923907835 10.499363398704853 14.059252441756293 2 0 1
105 0 2 0 12.838385871813411 1.0422038203736603 0.310936788179085 1 -1 0
874 0 1 0 5.821704980643519 7.462083171876184 6.656650854164648 -1 1 0
1270 0 1 0 2.118139569915101 12.887835714478065 5.927944414218612 1 1 0
738 0 2 0 7.82390352489703 8.641973272440644 9.454482503384652 -1 -1 0
767 0 2 0 10.061116061456497 3.988380145494344 14.489943022454998 0 -2 0
974 0 2 0 -3.193050077900737 20.742224800640862 0.8592540854435633 1 1 0
270 0 2 0 4.118727771125672 16.881451329986128 0.2886338812791718 -1 0 0
711 0 2 0 9.117433851196491 11.614348033355377 7.115299190394595 0 1 0
523 0 1 0 -4.5216526744220475 9.548570242301595 8.212059686697703 0 -1 0
737 0 2 0 8.688196133791424 9.180654809358137 10.705318450577513 -1 -1 0
716 0 2 0 5.0418977671696865 10.16906554088608 13.346124622707864 1 -2 0
624 0 2 0 -2.4089360658756975 12.343351356709714 2.3631042242821683 1 0 0
348 0 2 0 11.838923853711389 0.3450617223668502 7.710292611082771 -1 1 0
799 0 1 0 -1.316656352517624 14.218073734462042 6.830528301121648 -1 -1 0
1012 0 1 0 1.5364949239102046 2.2582533771219264 7.684751758238319 1 -1 0
375 0 2 0 6.658546406467007 7.6155589353970985 2.3234637242415013 1 2 0
1282 0 1 0 2.4739420250063877 -1.3906694451361616 11.081158751580633 1 1 0
17 0 2 0 8.980976404970342 6.4441544172476295 -0.22879800858746113 0 -1 0
339 0 2 0 10.529733986795478 9.433221394252213 2.680765882129856 -1 -1 0
1031 0 2 0 1.0908409959277239 6.438001922329958 12.953629559010247 2 1 0
1175 0 2 0 -2.050809372822236 17.812882213632427 5.136477018628752 -2 -3 0
116 0 2 0 -0.1632662929063463 2.049392596695739 13.903462272251199 0 1 0
20 0 2 0 3.3138908492475068 11.959489743690096 13.850036065810162 1 1 0
477 0 2 0 -0.6618163209490858 5.594674262050696 7.842899215848943 2 0 0
188 0 2 0 2.0916194739052787 0.2741607753044133 7.483323136000516 0 -2 0
204 0 2 0 3.831727688309903 5.5400204373572866 10.265062437414162 1 2 0
372 0 2 0 1.665299504401093 14.103029993334427 11.97685966300977 1 2 0
801 0 2 0 -0.5543261504393542 14.493975006680897 7.323352106697319 -1 -1 0
1340 0 2 0 4.129058010229958 2.8687664995672133 12.139851138747812 1 2 0
1061 0 2 0 -7.405303797767161 17.836215761856202 8.976911412752191 -1 -2 0
622 0 1 0 -2.7856054331797684 11.704021556443804 1.7346860748219957 1 0 0
675 0 2 0 5.514153229489822 2.8118707709230017 1.2196316769019782 0 -2 0
175 0 1 0 11.323451558038387 1.7678350218958119 5.179192552960547 -1 0 0
871 0 1 0 0.1446117861193613 8.04720837877869 2.1819138271006273 1 1 0
67 0 1 0 5.062588042691359 15.260533843294123 5.097546960062375 -1 0 0
744 0 2 0 4.834822363451507 13.53634858070195 8.724544579225798 1 -1 0
19 0 1 0 3.7509438427034754 11.564388838390744 13.027401329033964 1 1 0
1188 0 2 0 -3.8999701792623256 14.830674214430248 13.533855712334615 0 -2 0
206 0 2 0 8.701745668061116 5.458069682064968 7.229484711303515 0 1 0
664 0 1 0 1.9660004794205128 9.997011687882186 11.647234176863487 1 -1 0
1146 0 2 0 2.863367634143292 4.9468672758006065 3.436123604996312 0 1 0
496 0 1 0 1.8345513032819492 7.497697857577724 14.382915853744203 0 0 0
367 0 1 0 -3.3331003757819144 5.594867857691218 11.992929323747479 1 3 0
1182 0 2 0 3.6108519887380535 10.38324628279609 7.879315000444565 2 2 0
237 0 2 0 8.248432085127234 1.8854773774875304 6.1338858742038145 -1 0 1
1030 0 1 0 1.1364076124418654 5.528277284591087 12.661492049952692 2 1 0
386 0 2 0 -4.439959101516564 13.124462895861368 4.346765254395435 1 0 0
929 0 2 0 -3.024125801367906 11.885035014857394 13.991124483050552 0 0 0
23 0 2 0 3.9444262721525654 3.6016915792895783 8.744872194974077 0 -3 0
366 0 2 0 0.404408584798464 -3.660649176774721 12.864185871822055 1 -2 0
564 0 2 0 -3.0504352126667564 15.202046355297046 10.014696727974409 0 0 0
301 0 1 0 9.352211268667812 7.194380580401615 6.94031483006115 0 -1 1
717 0 2 0 5.148953786479475 8.605972829950694 13.439571356859103 1 -1 0
370 0 1 0 0.9225658071183898 13.556977069543976 12.359571706886706 1 2 0
505 0 1 0 6.183020818326666 0.5991030938524489 3.6459594696332136 -1 -1 0
476 0 2 0 0.63738601119257 5.030901110218661 8.225250889512552 2 0 0
38 0 2 0 7.744375327629076 11.18153509075684 1.20589547957846 -1 0 0
325 0 1 0 -2.660771468235523 10.426368432501437 11.43394840537566 1 0 0
585 0 2 0 3.7967749342708985 -1.7188065249217792 9.842597178594506 -2 -1 0
483 0 2 0 -2.757907256616141 15.913892558361418 4.138472533267224 3 1 0
2315 0 2 0 -1.584734495201381 13.208205806367083 -0.6464085681065233 0 0 1
904 0 1 0 -0.8556081893782161 7.176580310912847 10.570072962420104 -1 1 0
1470 0 2 0 -1.5631054679801981 5.921049635821733 3.6498654382514717 1 -1 0
724 0 1 0 -0.9580623726221594 5.951775886337366 -0.08125950918442548 1 -2 0
811 0 1 0 4.128362097159789 5.360092415033428 0.8249047592656764 0 -1 0
728 0 2 0 3.4227750760147617 17.907342602644064 9.02658770698863 0 2 0
794 0 2 0 -0.5138335112831128 13.76427924499759 1.213643200537403 1 1 0
469 0 1 0 3.202433350945544 2.2365245327510186 14.849186798679936 0 2 0
377 0 2 0 6.996508428520378 17.017337211921223 1.065138728258071 1 0 0
119 0 2 0 -3.331536248504944 7.582263703060241 3.665730299613414 -2 -4 0
812 0 2 0 3.895522795056479 4.434796892577919 0.8202581897775405 0 -1 0
1241 0 2 0 2.0192238686557484 1.4890314246629577 4.710965299009227 -1 1 0
328 0 1 0 -0.9586250019049629 3.6976713472915197 13.384824422934901 0 0 0
650 0 2 0 1.476413623975796 7.2694535105246505 1.1323520334552641 1 0 0
808 0 1 0 -6.681271268184511 14.299126326430812 9.448441504122082 1 1 0
2413 0 1 0 -4.59150033162632 19.266956023482965 4.124652362759531 2 0 0
472 0 1 0 4.661834475625342 4.660801661222389 15.086852503113882 -1 0 0
667 0 1 0 0.7045366274427317 20.31444762411789 -0.4300913966757081 1 -1 0
109 0 1 0 0.838512344980219 12.460040848161668 1.0894989835828657 0 -2 0
673 0 1 0 5.74442834392761 2.964432721189326 2.1304457752052652 0 -2 0
1074 0 2 0 2.0589198049167665 8.936393879698599 10.452655681655058 1 3 0
408 0 2 0 -4.432344329060084 14.536577367760263 7.822853565377983 1 0 0
208 0 1 0 9.87319213113645 -0.07553801049778919 14.00449935957294 -1 1 0
793 0 1 0 -1.3098520685098733 14.227309667108248 0.8311164734410752 1 1 0
576 0 2 0 -0.9567323088302291 12.434020535037963 3.965019967200046 2 2 0
122 0 2 0 6.412163645339743 6.523681724575233 13.468306561191062 0 1 0
540 0 2 0 7.3736287200042 13.121426535655008 14.538816249149559 -1 0 0
437 0 2 0 10.470134466759028 -1.439140399998971 8.544564258016534 0 -1 0
561 0 2 0 4.7451953888166445 -0.8439172892735938 13.163902028343669 0 4 0
1287 0 2 0 7.73195962182024 -4.1927427007890685 12.45053046119674 0 1 0
549 0 2 0 -6.644691998516672 14.643190852970243 13.31610458188745 2 1 0
1032 0 2 0 0.8104447914036991 5.528043199453039 11.731981908854891 2 1 0
2582 0 2 0 11.699515947880641 3.6915827954886495 11.119089817935311 1 0 1
420 0 2 0 8.792809886884635 1.5645050481012244 10.108788175420798 -3 1 0
1022 0 2 0 13.300849259440001 3.184072557549688 0.8740326547180954 1 1 0
1244 0 2 0 -2.2776956941528703 11.37462012019996 10.152636834460237 0 -1 0
1125 0 2 0 1.145228812271956 13.229870933018686 9.067512390302614 0 -2 0
1009 0 1 0 -3.8866497938213547 8.90908092786069 14.78749564895081 0 -1 0
930 0 2 0 -4.517997699821907 11.702366812356964 13.821936280465607 0 0 0
245 0 2 0 12.968485434425281 1.3231633027413263 12.632457852226274 1 0 0
1293 0 2 0 8.50776384378682 12.568155720584947 11.237658538907134 1 2 0
143 0 2 0 -2.235442127576147 15.940991564391068 15.26012595526672 0 0 0
567 0 2 0 5.560529808222883 1.1640865010782142 10.838781890632927 0 2 0
346 0 1 0 12.644005818648523 0.6724990952263079 7.3009591973037775 -1 1 0
876 0 2 0 6.115055582574391 7.456847048156932 7.604175400000777 -1 1 0
438 0 2 0 9.762745089106495 -0.055019449220522265 8.572740521850458 -1 -1 0
733 0 1 0 4.118091152437553 5.459899701178346 6.421327813091226 2 3 0
735 0 2 0 4.089642776075921 4.96891254890099 5.594675844007803 2 3 0
1224 0 2 0 -2.264204351778342 10.971757165183515 6.279911224143029 1 3 0
1228 0 1 0 7.248773157172429 3.6588375332122594 12.83359448998587 0 -1 0
258 0 2 0 7.806034357346838 -2.1453282610882045 10.971190987331301 2 3 0
102 0 2 0 -6.297421921450557 16.135858471370607 6.500533614322771 1 -1 0
1184 0 2 0 -0.651455720151796 13.960352029805769 13.310455020765726 0 0 0
2486 0 2 0 3.792105869848244 14.95801643302345 -0.6389925012403398 0 0 0
1109 0 2 0 13.725696257705096 -0.414600938183856 9.959318670770262 3 3 0
317 0 2 0 6.479615473927714 17.827812833218033 3.380850517790094 0 0 0
878 0 2 0 7.285652319324803 0.6323589800006264 12.086547262273946 1 2 0
1180 0 1 0 3.4599716044677535 10.834376641117908 8.698939160612621 2 2 0
359 0 2 0 8.010576901998064 15.871385949519723 5.095908423498714 0 -3 0
769 0 1 0 9.963151365892623 10.337972525174125 7.95257323164655 -1 -3 0
427 0 1 0 3.882969989453233 9.443145365211437 6.096320567212176 0 -3 0
268 0 1 0 4.227644613474552 17.390130936444212 1.1510537126261333 -1 0 0
599 0 2 0 -0.023771220740272436 -1.0842420392725445 12.422781078132727 1 0 0
1127 0 2 0 -5.05887152209417 17.200496241217337 9.928968425102987 0 1 0
872 0 2 0 -0.7361910309757413 7.662304362647328 2.2887964128254503 1 1 0
539 0 2 0 6.488747556569393 14.011827147574838 13.515559432812234 -1 -1 0
1014 0 2 0 0.99193555696292 2.3575684064851505 6.924784938940627 1 -1 0
1037 0 2 0 7.807945548687465 15.721133378775017 3.1219333813187036 1 1 0
444 0 2 0 1.093126247176253 4.886977893343162 2.10463354554332 0 0 0
1107 0 2 0 11.388264484130742 -1.6070614752971768 4.5881418303208 2 3 0
1017 0 2 0 2.8454196853265055 -4.475136315404073 13.342161446157235 1 0 0
997 0 1 0 10.72813230442147 1.0381201917236875 2.5784602642882293 0 1 0
978 0 2 0 10.658029361324369 3.985409119148104 1.0912626097921472 0 0 0
2403 0 2 0 7.907034652384107 0.00044207773694826535 3.6555628634305153 0 1 0
68 0 2 0 5.288072213126805 14.548548794878334 4.467867508523058 -1 0 0
666 0 2 0 2.683827201191352 10.386300474183653 12.233044671426251 1 -1 0
1073 0 2 0 1.9171525974001993 8.345912259880595 9.042002044203782 1 3 0
1388 0 2 0 -1.1883650959815353 9.274718717465166 8.378687145748914 0 1 0
885 0 2 0 10.287784536112856 -4.334714282693564 13.849368510512614 -1 0 0
641 0 2 0 -2.1546230225698593 15.069415763231644 2.0083476846932844 0 0 0
407 0 2 0 -4.618568485956899 13.77640069828541 6.4353790298834985 1 0 0
302 0 2 0 8.802204113638457 7.560656138818273 6.257335079829755 0 0 1
429 0 2 0 4.256188730866586 10.309775314596335 5.930624342837187 0 -3 0
1205 0 2 0 11.276320241846948 4.966391014367101 5.115222321359466 -1 0 0
680 0 2 0 0.19594806930829062 -0.47645936810410616 2.9803497474896097 2 2 0
1216 0 1 0 8.940711018748383 5.5247417000908285 3.7508913622912026 -1 2 0
882 0 2 0 1.1356507175369714 6.766868459258188 7.06988104426055 0 -1 0
2186 0 2 0 4.934907181773697 -3.4638710028557673 12.379723597105484 -1 0 1
485 0 2 0 6.215287208157486 13.162666655821923 11.412883138222623 -1 -3 0
1285 0 1 0 -1.5555286773124963 16.254112087753988 12.068864421579109 0 0 0
1275 0 2 0 4.9052862028390924 1.3948823315820214 8.256771660033749 2 2 0
406 0 1 0 -5.01777294240711 14.450701843432093 7.0597009162167135 1 0 0
890 0 2 0 2.049988687815701 8.915580612234404 -0.10064049097260686 1 0 0
2 0 2 0 13.546059282356522 2.46123940193342 3.281280740045756 -1 -2 0
197 0 2 0 7.114896259587018 -1.5018098992963527 6.036526848614522 1 2 0
1532 0 2 0 13.061155368591548 -0.028697316598482514 4.181562810235709 0 1 0
742 0 1 0 3.89938327743723 13.398326341015887 8.83746037349072 1 -1 0
976 0 1 0 10.035051043208773 3.2155768750559877 1.1800614008319474 0 0 0
639 0 2 0 -4.472660222729498 18.495807188343036 6.069994278290934 -1 -3 0
903 0 2 0 9.231726341300364 6.441925158129682 10.807232264733523 -2 0 0
883 0 1 0 10.310008954622855 -3.51753506493887 13.355993072656554 -1 0 0
1174 0 1 0 -2.0936451928774744 18.681811038581216 4.734427296307632 -2 -3 0
451 0 1 0 -1.3458933625968894 17.044298480910925 8.028791887980562 0 0 0
256 0 1 0 8.190240131020706 -2.2643094917225803 11.851571615830727 2 3 0
28 0 1 0 -2.013462793740919 7.161512772936532 13.757205061958267 0 0 0
255 0 2 0 -0.7765928235354268 17.275559520087103 0.6147891182501397 0 0 0
1271 0 2 0 1.6068444252612666 13.074673852786924 6.721587772564861 1 1 0
895 0 1 0 6.563547922694785 2.483756616118431 5.759096258461687 0 0 0
141 0 2 0 6.316657128320228 4.1785527261854405 5.055268781812187 0 -1 0
528 0 2 0 1.494291085217049 12.887400480698037 14.060806564132829 2 2 0
470 0 2 0 2.696686130081653 2.4270236498355304 14.033555974546841 0 2 0
285 0 2 0 -0.9312968777574131 18.004864558962467 3.351276325591975 -1 0 0
203 0 2 0 3.3138270383957527 7.061813038210689 10.398125560979434 1 2 0
453 0 2 0 -0.7238016605183515 16.840988200139037 8.769642627763401 0 0 0
623 0 2 0 -3.2289474049394884 12.138944668087781 1.0126676534592034 1 0 0
809 0 2 0 -6.0909867051096835 13.54645299412597 9.149046352267892 1 1 0
14 0 2 0 6.445734295018451 13.62793107772407 -0.07806845886412328 -1 -1 0
1131 0 2 0 1.2180017233502727 1.6499355155395037 9.397977417328631 -1 0 0
765 0 2 0 4.585742943252177 20.38677892368542 1.0696691042233084 -1 -2 0
254 0 2 0 0.21073718392056195 16.98558586745906 -0.5044702522824616 0 0 0
37 0 1 0 7.056037054266153 10.520515959359127 1.1671655369649026 -1 0 0
22 0 1 0 3.2237023476413484 4.22862239291445 8.7135265223515 0 -3 0
439 0 1 0 -0.8314300588971817 10.150964466710255 0.9367604910207676 0 -1 0
1151 0 2 0 9.980485648817583 3.5244838783536467 8.120083935757282 0 2 0
662 0 2 0 4.862259644085218 5.992369813663213 2.40507479330009 -1 0 0
873 0 2 0 0.05139135080121465 8.956844428707203 1.829440513094057 1 1 0
1106 0 2 0 2.6454992592073285 19.727944653024245 3.1008001208076466 1 2 0
387 0 2 0 -4.2545640503054445 11.76303441181269 5.020121709659726 1 0 0
932 0 2 0 3.360284555814768 14.341032677223929 10.294650728214378 -2 -4 0
61 0 1 0 0.9202245762600119 11.664456060385755 9.974453323990694 0 -2 0
1155 0 2 0 -2.9345708067712866 5.615132438027278 6.329006410612583 1 -1 0
353 0 2 0 -7.099839199292982 18.123089803269234 5.617758555871378 2 0 0
2331 0 2 0 11.063415383969458 5.708145248671225 11.953369117429506 0 1 0
98 0 2 0 6.567408451526803 14.184300780196551 7.858196701916327 -2 -4 0
790 0 1 0 4.7224834771954916 11.75072570499011 1.67750934767004 -1 -1 0
1169 0 2 0 8.395487421180905 13.290664026768543 1.0554081655828085 0 -1 0
1263 0 2 0 3.966846192895318 14.563713694220166 13.551121920544585 -1 0 0
931 0 1 0 3.198021479419637 14.833786183905579 11.134467086784479 -2 -4 0
18 0 2 0 8.877475043011378 7.163901831260942 1.1366445409642214 0 -1 0
1310 0 2 0 4.601381337117696 3.7737061313044435 3.3944390023734865 1 0 0
1186 0 1 0 -3.8145880382740622 14.968089017264422 14.460499069912311 0 -2 0
1015 0 1 0 -6.034729601599374 16.164195898782545 14.008893509213872 1 -1 0
1361 0 2 0 0.005001772237454405 8.392522256968245 4.068286145359775 1 -1 0
495 0 2 0 -1.044575811057744 8.425482705629369 12.979434984189865 0 0 0
906 0 2 0 -1.0550762802029108 6.433763996622247 9.96977058035329 -1 1 0
565 0 1 0 6.101075357418647 0.4670462601941283 10.48604032777543 0 2 0
13 0 1 0 6.806848760009055 14.28756866836305 0.5688736728266601 -1 -1 0
772 0 1 0 -7.391041972211531 19.981053295532707 -0.3503859864152972 -1 -2 0
1204 0 1 0 11.047718337580564 4.3510853901299145 4.370184226784679 -1 0 0
889 0 1 0 2.0694923647602397 9.928249340743617 -0.240600312446829 1 0 0
82 0 1 0 8.25331520758209 10.799936656144052 4.107921123031017 1 0 0
445 0 1 0 8.015181551816124 9.223588393827498 15.222474627623587 1 1 0
1187 0 2 0 -4.574606102945721 15.566428508992736 14.479149462200432 0 -2 0
305 0 2 0 -3.4659233978878223 16.87065958786064 0.3480736740687702 0 -3 0
401 0 2 0 5.547057923629096 16.170619494419675 14.046733890570195 -1 -3 0
1133 0 2 0 -1.1293067319769987 19.988732083682912 1.8868767040186452 1 1 0
1218 0 2 0 8.127809557145765 5.496768593888017 4.248297692702506 -1 2 0
196 0 1 0 7.0544078355068445 -0.7030917834060697 6.675822386416567 1 2 0
115 0 1 0 0.04005937941908855 1.360890482177834 14.542144136797175 0 0 0
1267 0 1 0 -1.9087276978552001 3.2429016339657135 10.710131995369156 1 2 0
15 0 2 0 6.909345382288076 15.196369357373692 0.2551319960962204 0 -1 0
614 0 2 0 2.6262179589623575 -0.10801340750951671 2.4193780663162125 0 2 0
802 0 1 0 -0.06098325610558447 15.28154376604361 3.7588089287018036 -1 0 0
1083 0 2 0 10.3267016926541 -3.5119485533330232 9.998121837905737 -3 2 0
1627 0 1 0 4.449715342821314 0.034433455346194464 6.985655242147019 0 1 0
1200 0 2 0 12.898388274313579 -3.191073523109738 11.139783804847111 -1 -1 0
216 0 2 0 2.6447917959844363 2.2323115313834796 0.11155917684408001 0 0 0
157 0 1 0 0.814513799850358 4.487419347179012 10.071681740078859 2 3 0
148 0 1 0 3.256004524479761 13.09667579007461 -0.2638243758405987 0 1 0
2415 0 2 0 -5.420893128137162 19.316275503125436 4.680529737261108 2 0 0
2459 0 2 0 -4.361495869867858 19.716260270206146 -0.6548706739162454 0 0 1
687 0 2 0 7.517400683877215 3.939101784200046 10.546000215015647 0 -1 0
1262 0 2 0 4.088795786835456 14.02436625187692 15.035462095288219 -1 0 0
653 0 2 0 0.9617213244846771 10.285545905351182 8.635804732202846 2 0 0
83 0 2 0 8.377045174473777 11.345962119463517 4.950220819870288 1 0 0
598 0 1 0 -0.3199266454108397 -0.3359771947327914 11.847310471655609 1 0 0
1242 0 2 0 3.1207418748156366 0.9724056722341268 3.8640531357710923 -1 1 0
1389 0 2 0 -1.7224979558093554 8.460739386645248 9.577236812099759 0 1 0
987 0 2 0 0.2800790402137056 4.75825152272417 5.782371438756899 1 -2 0
691 0 1 0 5.0522562181752635 9.912364204566865 10.731701119189523 1 -1 0
468 0 2 0 3.3278846081918387 8.424610022443792 4.94681806311023 2 2 0
446 0 2 0 7.126433468864586 9.336021681051061 14.795430652102466 1 1 0
562 0 1 0 -3.1841997825471235 15.129337289291765 9.094047793754552 0 0 0
665 0 2 0 1.2387182005243913 9.593033398026684 12.147373011085698 1 -1 0
950 0 2 0 5.516645302090049 12.210501099796074 5.175169876592103 1 2 0
563 0 2 0 -2.5286699595316198 14.419096628724036 8.92670837921541 0 0 0
91 0 1 0 2.6963612556308347 10.094216128578141 2.7336231734996708 0 0 0
1129 0 1 0 1.18631972724664 1.5393298993299398 10.39276020983087 -1 0 0
229 0 1 0 2.4724938543435147 3.0665375752242996 12.469690788904002 -2 -1 0
1519 0 1 0 1.8304578002116472 -4.070743524113972 11.915353997591192 1 1 0
851 0 2 0 10.211632614979852 3.0635374865936695 12.661903526104474 0 1 0
2509 0 1 0 0.42118951699860574 16.877174418381315 5.971264941400412 0 0 0
875 0 2 0 6.6139553480263995 7.617617495254908 6.118839210125824 -1 1 0
1229 0 2 0 7.354460570963877 4.553334301238248 13.144755635339104 0 -1 0
3 0 2 0 12.7368315495602 3.7216541498729145 3.2602716903894624 -1 -2 0
2343 0 2 0 7.043648340381276 9.334896044733636 -0.2754399215806226 0 0 1
638 0 2 0 -3.7647694631940456 17.122487782547523 6.416799784434081 -1 -3 0
1223 0 2 0 -0.8443953519084 11.024050195254882 7.003241000993296 1 3 0
418 0 1 0 9.001959811009195 0.6472411897018042 9.999741788677738 -3 1 0
1304 0 2 0 14.128691474514014 -1.9561838422950268 14.116445874381819 0 0 0
640 0 1 0 -2.888554738133271 15.528971358251265 2.5064749038990906 0 0 0
783 0 2 0 1.32628762484794 18.456872393159912 2.0213489113159473 1 1 0
850 0 1 0 9.70578683426861 2.725099621852875 13.458307177012646 0 0 0
1261 0 1 0 3.465664689430793 14.446347653195376 14.330596724020007 -1 0 0
158 0 2 0 0.3277031291503665 3.652495568119162 10.222775431904681 2 3 0
2510 0 2 0 0.23945100257316995 16.26815713416581 5.235625505918843 0 1 1
729 0 2 0 4.22777022959084 16.71756221298284 8.41573313183403 0 2 0
419 0 2 0 8.181251641570274 0.1534721159947794 10.167251483323705 -3 1 1
1105 0 1 0 12.078617099983328 -1.384648815890253 3.9808418284440767 2 3 0
149 0 2 0 2.3890257670354536 12.756696637740099 0.0700098104216127 0 1 0
684 0 2 0 10.151161703927146 7.082268232725603 3.8366665432429468 1 0 0
481 0 1 0 -2.667352455882047 15.935971278665995 5.122205035003429 3 1 0
1177 0 1 0 -4.2124885878529925 8.246197449472763 11.095482754077992 1 1 0
773 0 2 0 -8.233403377139968 20.19285549589216 0.02784873140994526 -1 -2 0
1049 0 2 0 8.606723743520455 8.758106612981226 13.3396502156168 -1 -3 0
506 0 2 0 5.509082345610931 -0.06383399977664261 3.5004976475416187 -1 -1 0
1243 0 1 0 -2.0000858974433764 11.990940190356813 9.47981187346943 0 -1 0
902 0 2 0 8.110367355364696 6.389305900610405 11.944200950064225 -2 0 0
805 0 1 0 9.860330805126315 -1.7418948220931738 5.565380577780266 0 -1 0
1311 0 2 0 3.555928870523492 2.9273969040132153 4.2275189808994735 1 0 0
123 0 2 0 7.595371679591059 6.2688108997593055 14.564194420574085 0 1 0
743 0 2 0 3.66778951283816 12.45522389793398 8.593437821705878 1 -1 0
880 0 1 0 1.8133711230318843 7.45745635957763 7.070415135118941 0 -1 0
766 0 1 0 10.266676971002246 4.840672980333599 14.877989025269715 0 -2 0
2532 0 2 0 -0.5698564351706412 11.585389893961954 15.016967077503587 2 0 1
441 0 2 0 -0.9770389594334488 9.769470453622858 0.015435748988415932 0 -1 0
560 0 2 0 4.488788646830058 0.604432918387193 12.831584871801105 0 4 0
710 0 2 0 9.074907677760143 12.88728801457075 6.2890425905250495 0 1 0
636 0 2 0 10.946031830919928 6.2335305955049485 1.029346275817054 0 -1 0
140 0 2 0 6.0122372731423495 5.565610896181233 4.382006189771422 0 -1 0
964 0 1 0 0.3462577490491009 1.8709828829714048 5.188319379308982 -1 1 0
574 0 1 0 -1.651490275358882 13.056442123654811 3.800825178934022 2 1 0
1254 0 2 0 7.08166024462156 12.006052935077085 3.6517007065637417 1 -1 0
1010 0 2 0 -4.57762434357268 9.215736706844709 14.202564451576164 0 -1 0
1531 0 1 0 13.69686933351071 0.7292656755117384 4.175582580085512 0 1 0
747 0 2 0 -4.298700102963929 10.804760957402381 2.2108031024713224 -2 -1 0
1240 0 1 0 2.99027294894556 1.3082076848178548 4.76712232632768 -1 1 0
1521 0 2 0 -7.490023276126026 16.505779021952232 11.307388785009685 1 0 0
526 0 1 0 1.4358556056671166 12.372173299863542 14.86115226568603 2 2 0
1309 0 1 0 3.87745782997961 3.8466436248813407 4.047247328127277 1 0 0
236 0 2 0 8.580656919563653 0.4131852520350785 6.465889293854046 -1 0 0
764 0 2 0 5.167959443610462 18.798283824402006 1.3224568047398053 -1 -2 0
965 0 2 0 0.08266752987349471 2.7822670407164845 5.012462630871468 -1 1 0
1038 0 2 0 7.213349775198774 14.251051103420522 3.488635387305764 1 1 0
94 0 1 0 10.007395342789442 9.695557502391434 -0.13817573681331508 1 0 0
524 0 2 0 -3.7903931862147493 9.1472325105748 8.70339023583491 0 -1 0
2444 0 2 0 3.3716909317265156 15.220237683958597 6.545105636793803 -1 -1 0
493 0 1 0 -0.5936150405328442 9.250837946450194 12.694857593913644 0 0 0
896 0 2 0 5.961925777443478 2.500284330959694 6.549008388546228 0 0 0
1258 0 1 0 -3.084864299967679 4.070073324847663 15.020985838869796 1 0 0
121 0 1 0 7.280228048319719 6.275620951033537 13.611416996329433 0 1 0
30 0 2 0 -2.496876060824496 6.513001824331509 13.269055668537053 0 0 0
1138 0 1 0 5.487813087742096 2.345963172645695 -0.38440114526820446 0 -1 0
1206 0 2 0 10.987050374772485 3.4442541259159194 4.762639806705183 0 0 0
24 0 2 0 3.4922422605684877 4.8337933209973265 7.994238541498714 0 -3 0
1096 0 1 0 -5.944949271057837 18.51938428488782 1.5871997368230035 1 -1 0
985 0 1 0 -0.009868898572000184 4.460261146952202 4.849338350229944 1 -2 0
257 0 2 0 9.121503193258453 -2.350819994044672 11.829755215142278 2 3 0
807 0 2 0 0.5350719071983623 18.620096052511997 5.791331261900533 0 -2 0
108 0 2 0 -3.826178207429411 12.434652720015267 9.590436604365905 0 -2 0
1303 0 1 0 13.25042725166809 -1.6083801352463718 14.0788139974005 0 0 0
1245 0 2 0 -2.1624794205856133 11.69261755486249 8.595894994220174 0 -1 0
267 0 2 0 4.2111350616615715 6.582777476882786 12.369962757933948 0 -2 0
320 0 2 0 0.4843822206478793 15.520245543607238 9.63925952494997 -1 -2 0
2450 0 2 0 -3.9430578948915884 14.733376040133871 -0.621304509128587 0 0 0