LAMMPS data file via write_data, version 23 Jun 2022, timestep = 142631000

2592 atoms
2 atom types

0 30.923 xlo xhi
0 21.319344 ylo yhi
-0.9801356983989287 31.70273069839887 zlo zhi
-9.137482 1.1412537618975782 -10.741094420048649 xy xz yz

Masses

1 1.008
2 15.999

Atoms # full

1153 0 1 0 5.212618461535971 16.893050858364866 5.353285002658034 1 -1 0
1066 0 1 0 7.952097819145666 16.199363579921883 3.891962928815479 -1 -2 0
1104 0 2 0 2.416557386964271 -1.0339262036108234 4.9903136650037325 0 -3 0
763 0 1 0 12.856313760030792 -3.2508899675485368 13.731759727766994 0 -1 0
592 0 1 0 -0.8390343659102464 10.635294189702513 10.293147876058951 -1 1 0
625 0 1 0 5.443435221979643 7.468346842572096 2.6913010402874114 1 -1 0
2377 0 1 0 -2.9121458326115865 15.541264918070931 2.477701946594846 1 -1 0
777 0 2 0 11.733500512799049 5.648672006801845 0.37757253870518603 1 0 0
975 0 2 0 5.14631109431884 1.4698922164084904 0.034982240907507345 1 2 0
918 0 2 0 10.707818576919626 1.4584054949092984 13.453452257295465 1 2 0
1102 0 1 0 3.0103422608745203 -0.2307335753013562 4.994472622697669 0 -3 0
217 0 1 0 2.555336983217133 4.009144907990536 0.7510061516600883 0 -1 0
2243 0 2 0 -4.313785681113216 13.343181205909548 5.5539005313999645 -1 -1 1
1236 0 2 0 10.10075014735374 7.988394858890032 10.70000420840473 1 -1 0
47 0 2 0 2.708050135334561 13.539032221273725 12.198400470877555 0 0 0
250 0 1 0 3.0486865011476203 1.575418819445389 1.8952286267769498 1 0 0
466 0 1 0 5.509160799782975 14.510987973073329 10.014470249784384 2 2 0
786 0 2 0 5.651088571966991 6.66053465685913 -0.2574773140683755 0 0 0
711 0 2 0 12.547666667220355 0.07478563506038594 15.191569270527292 0 1 0
1072 0 1 0 8.856153949015603 0.3413473846986508 3.1566753242900036 0 2 0
525 0 2 0 4.621124551818437 10.19081798942782 13.873245885935678 1 0 0
270 0 2 0 4.354979372999617 17.93267645524684 0.3444859083330929 -1 0 0
821 0 2 0 0.323017635629717 13.800179764518099 6.365513075736991 1 1 0
789 0 2 0 7.574345894095526 8.039835184653212 9.098284971389091 0 1 0
1291 0 1 0 -0.17734746834142168 17.71117396873787 6.648847396439157 1 2 0
823 0 1 0 8.485577865425196 2.436625783796059 9.388368218041752 0 -1 0
348 0 2 0 5.529126131955434 18.576793684274733 4.901663797978382 -1 -1 0
213 0 2 0 0.4090152020422608 -1.5756083740876639 5.573800807995613 0 0 0
1293 0 2 0 -0.009116540804216089 18.46136085076798 6.0892800887558725 1 2 0
39 0 2 0 6.526823880256806 11.345443233759454 0.9050837361779767 -1 0 0
552 0 2 0 -3.3522589102391773 14.836335663547068 8.102499369818796 0 -2 0
907 0 1 0 3.9461789116763035 -3.3443195074851895 13.377557592595904 2 4 0
317 0 2 0 5.0254226955904215 19.945450432666007 1.0134537135267032 0 0 0
165 0 2 0 7.911595469464207 8.916038998167526 5.486005477844551 0 3 0
673 0 1 0 2.0422236633330475 16.84068726082735 9.64440958828765 0 -3 0
497 0 2 0 5.337907908526049 3.858776836766638 12.046974388278622 -1 0 0
1433 0 2 0 5.679826546810536 7.583383570510699 13.393478258639998 0 0 0
101 0 2 0 -1.863121900338025 7.201519670482813 10.795910749465095 1 1 0
103 0 1 0 12.314013255798281 0.842102097222682 -0.1557147934864993 1 -1 0
848 0 2 0 5.4142050796255985 15.803162604182514 2.035195677904007 -1 0 0
532 0 1 0 -1.3679647032908482 17.47364485002713 9.040339096819139 1 0 0
1255 0 1 0 5.374872806513904 1.6650049253780972 3.582684754097686 1 2 0
519 0 2 0 6.9961039898339745 8.079545277833073 2.248372041051095 -1 -1 0
425 0 2 0 2.8169601652905003 6.213177640443869 12.903367153880263 -1 -1 0
1179 0 2 0 1.7962744559950803 2.742720385090318 14.004144918658113 1 1 0
865 0 1 0 12.235141112496006 -1.1576700948144203 3.8707198905360247 1 -1 0
2401 0 1 0 9.129098654769415 13.470285326936011 1.0893696247808116 0 1 0
775 0 1 0 11.928717718075985 6.484691782521784 0.7962435155084286 1 0 0
623 0 2 0 -2.7377112234629055 12.659428178898652 0.6834282357697947 1 0 0
294 0 2 0 2.385276190089744 17.45335065272928 6.7817606253539084 -1 1 0
822 0 2 0 1.654866203225075 13.770245199595628 6.94842111646715 1 1 0
724 0 1 0 -1.0956325406657075 6.661203076026804 -0.5601302097978684 1 -2 0
251 0 2 0 3.6547967292219496 1.806192181158539 2.5994342611917425 1 0 0
944 0 2 0 -8.109611086068842 20.792778825861372 -0.10253886251595024 1 0 0
795 0 2 0 -0.9178061260795275 15.739176445582277 0.07079847106839132 1 1 0
870 0 2 0 9.222676190465704 10.747320715421328 10.394605123715355 -1 0 0
735 0 2 0 3.2718715815999655 4.361289744280208 7.723551392954983 2 1 0
489 0 2 0 3.2272662574222135 14.989054106809323 7.016856019822113 0 -1 0
468 0 2 0 5.418808420818576 13.81577985148868 9.378094916379089 2 2 0
137 0 2 0 6.7206574523501645 18.73869307432789 2.9327042811247184 1 -1 0
228 0 2 0 0.1892136075821283 2.256820281219455 11.44015212528205 1 0 0
413 0 2 0 2.584959190880022 0.9501349159259522 7.803331008134666 0 0 1
204 0 2 0 -4.829573976245845 13.39358228565529 -0.12905489405376214 1 1 0
893 0 2 0 -0.022966504242710406 11.644411584018027 7.4201498756634106 0 1 0
2373 0 2 0 4.224427085130415 5.50203947507268 14.657013734248183 0 1 1
658 0 1 0 -7.090745212703046 14.942562482398658 11.950082536336406 2 0 0
131 0 2 0 5.6838650274978235 10.970781035233095 11.457766583723128 0 -1 0
734 0 2 0 2.494867431229139 3.481692351547342 6.690243186549686 2 1 0
31 0 1 0 -0.27846399706550307 -2.0664579541102746 14.642871463277555 0 0 0
506 0 2 0 12.219516611450496 -1.2687978073124757 8.34954604211126 -2 -2 0
1062 0 2 0 -5.058999351429986 12.071510299446023 13.811094890774639 -1 -2 0
913 0 1 0 9.44687447780571 1.032715345227461 7.012110464630713 -1 0 0
307 0 1 0 5.593491224111286 -1.7372768413556283 14.769036831696797 1 1 0
412 0 1 0 3.479026815053438 0.5592133930080259 7.632473574914158 0 0 0
1211 0 2 0 8.294289541405744 3.5149328463964027 3.4218717965942114 0 -1 0
102 0 2 0 -3.2333064709720367 6.5740537072473195 11.147522530595902 1 1 0
505 0 1 0 11.899530708910444 -0.9567070003779374 7.478654596040796 -2 -2 0
895 0 1 0 1.322416571222059 13.4700778673096 0.8797359162900253 0 -1 0
667 0 1 0 9.475445603747303 -0.2834132372541314 -0.05542573509096316 1 0 0
603 0 2 0 9.076631033709928 7.1419110108686 5.4238242324552735 1 0 0
227 0 2 0 -1.249282128932345 2.110417881839463 10.892198330667162 1 0 0
56 0 2 0 7.549193640003168 0.924200490205914 14.67078202178112 1 -1 0
567 0 2 0 2.584880537269 8.009972806146289 9.508571157535595 0 1 0
407 0 2 0 9.447128155818422 11.711759881631991 3.4664102528294602 1 1 0
463 0 1 0 -0.22815991610133932 9.353968547567606 5.584330525741179 1 0 0
1257 0 2 0 5.700043811059311 2.3324610747184478 2.9756851801444615 1 2 0
2445 0 2 0 2.1662825428483896 8.670546668649262 -0.26981757723297206 0 0 1
896 0 2 0 0.5813895062027916 14.086586549189482 0.9412545778677353 0 -1 0
278 0 2 0 5.066516951448388 9.097492459870216 3.3863935275177264 1 2 0
574 0 1 0 9.96873437470094 4.993637643098913 10.112373926188305 2 1 0
135 0 2 0 12.591894397187392 0.7085305239992996 6.861693766674132 2 4 0
292 0 1 0 3.3041175890694454 17.80053455966786 6.833389345893354 -1 1 0
565 0 1 0 1.850112332273814 7.537191520918379 9.102001568897117 0 1 0
754 0 1 0 -5.140214005992152 12.610413001417976 9.362355399800643 -2 0 0
624 0 2 0 -3.066450550121897 11.490504678966918 1.6297424830293128 1 0 0
867 0 2 0 11.71610064423993 -1.3277773630173764 3.0751139556283276 1 -1 0
1194 0 2 0 1.0824159891889757 15.454974760799768 3.7121748709133264 0 -1 0
1210 0 1 0 7.865407790492487 2.8953450141114576 4.0244460571889045 0 -1 0
765 0 2 0 12.574602788835193 -4.2022037120411095 13.8852834323157 0 -1 0
776 0 2 0 11.120507530139248 7.034532907027355 0.6126569725608559 1 0 0
1156 0 1 0 0.5720605671286405 0.7702161567841794 2.9546220033609547 0 0 0
987 0 2 0 8.908025371780631 5.514108233204108 11.213712123816348 0 -2 0
640 0 1 0 7.237224092200795 10.943908416228169 8.555938394489004 0 0 0
841 0 1 0 10.263335466718702 6.5351008318252815 14.241193182142458 0 0 0
1173 0 2 0 -2.4173140819834447 12.563526182734808 7.713235241894852 0 -1 0
2511 0 2 0 5.448274004687669 13.314842870451209 15.31004767628938 0 -1 0
254 0 2 0 0.37230893909278095 17.663306443745306 -0.49724702608390253 0 0 0
943 0 1 0 -7.224686778041298 20.951815892193473 -0.5723713475399815 1 0 0
467 0 2 0 5.628465151134109 15.347819445860106 9.488726870980921 2 2 0
756 0 2 0 -4.1772994279487214 12.454109869013587 9.380812291450173 -2 0 0
583 0 1 0 4.937097490535994 1.6320926345676918 13.262419200679583 0 0 0
1162 0 1 0 2.678638720390757 10.019739035657494 7.880130248045946 1 -1 0
695 0 2 0 8.176516182137968 5.739516438660278 2.2143621799731545 -2 2 0
622 0 1 0 -2.409843927181449 12.080360048656567 1.3394426798648347 1 0 0
382 0 1 0 4.639781003866941 7.897784831314569 7.306347046174464 -1 -1 0
824 0 2 0 7.490835210289192 2.433195316876468 9.409690944868329 0 -1 0
912 0 2 0 8.842146460736375 0.42014762810431083 12.326313259873277 0 2 0
77 0 2 0 1.669450895474052 5.58392925535458 6.549023719060514 1 0 0
1212 0 2 0 8.05432818563401 2.0081053751228852 3.6224556704094093 0 -1 0
434 0 2 0 5.498280944360118 6.902031422075186 5.703357848904166 1 1 0
828 0 2 0 11.435970949260993 -0.3238069033968074 12.469463626352635 0 -1 0
965 0 2 0 4.653116443351421 5.388209499667816 9.54462234774582 0 1 0
371 0 2 0 10.515451044270327 3.563580873619302 1.255617010550662 0 1 0
393 0 2 0 -4.54287072539631 19.867971470432412 2.5716081902095858 0 -1 0
2199 0 2 0 10.159770179604283 2.8302665035752423 -0.7256712874285293 0 0 1
458 0 2 0 6.35688793331201 17.799012216017687 8.651499601330768 0 0 0
669 0 2 0 -0.5201210066095414 20.70848160103999 0.23101252877131984 1 -1 0
1051 0 1 0 10.87155008755948 1.8251794834690602 1.9360841734973127 1 1 0
342 0 2 0 -6.2332237694526285 16.61944693966145 6.247426088411072 0 0 0
1267 0 1 0 3.7962938603566223 9.120173462440015 10.515972771230599 0 0 0
1015 0 1 0 -1.9465268393462225 20.1732117523108 1.2346935519524536 1 -1 0
820 0 1 0 1.0166241918752443 13.178714429145339 6.557936581877958 1 1 0
1310 0 2 0 -7.2868353296540205 14.958401138440943 7.956060196579639 1 0 0
1215 0 2 0 2.683808052543885 1.5510728731299015 4.825524576966579 1 0 0
677 0 2 0 2.2895989185956664 9.701286854617397 11.442560110711204 0 -1 0
358 0 1 0 -1.4240945932962448 7.004996862050318 4.223738957089858 1 -1 0
917 0 2 0 10.142039832110276 0.29003873350301923 14.248741664571128 1 2 0
1434 0 2 0 6.40192762480783 7.322211858818723 14.71309417841697 0 0 0
374 0 2 0 4.852598288150485 4.30785113773784 2.3158788681441367 1 2 0
38 0 2 0 7.548678600418668 10.463770389595702 1.6893314764971912 -1 0 0
1496 0 2 0 7.0245150935860385 13.681081749510199 10.890970960320802 0 -1 0
533 0 2 0 -1.7196634415251704 16.783911730824585 9.584644403920505 1 0 0
566 0 2 0 1.982184812924363 7.640190727279595 8.133233726285432 0 1 0
1376 0 2 0 0.2721381175791653 6.827199121843768 14.644190332364287 0 0 0
92 0 2 0 6.328291254674129 13.587862153590162 2.55388788343304 0 -1 0
15 0 2 0 7.0274141921797595 15.743790811825043 0.26869442208057537 0 -1 0
283 0 1 0 11.666954291505137 5.1790742935880125 4.050015345152235 -1 0 0
384 0 2 0 5.510977965375488 7.8264881013279615 7.799675759412084 -1 -1 0
636 0 2 0 9.16228899779243 8.23427238021624 1.2444346099442538 0 -1 0
2193 0 2 0 1.9265198479439505 0.08154678129280146 13.440964387106977 0 -1 1
1122 0 2 0 -0.8189375547798425 11.287016645020064 1.1143342221003287 1 2 0
2403 0 2 0 8.425808714901299 14.115722092770952 1.176569903065122 0 1 0
774 0 2 0 -0.7081577585046661 15.750101514604758 6.4532430168015225 -1 -1 0
197 0 2 0 5.987311184598841 -1.4680342220809994 9.555053705700034 0 1 0
1253 0 2 0 -2.336135294490409 16.500566432064183 12.142624724211204 0 -2 0
48 0 2 0 2.371202647663338 12.904332651763752 13.568059869200267 0 0 0
710 0 2 0 13.14608872853336 -0.39572286135047285 13.892707540591415 0 1 0
1041 0 2 0 -2.091292518052686 12.458532339758463 5.0419291199725 2 -1 0
1309 0 1 0 -6.58972263707161 15.21975886476956 7.33121594491365 1 0 0
564 0 2 0 3.0411784186352424 11.714387172202162 8.983583030837345 -1 -1 0
570 0 2 0 -5.8673759948141635 17.023266971846198 10.625511318189957 2 1 0
449 0 2 0 2.3838400793548757 9.111507868976307 14.718060933538018 0 -1 0
864 0 2 0 12.312410023710529 -3.004672455516751 9.611453677670372 1 0 0
1142 0 2 0 7.381503620086053 -1.5031814683178903 5.21335633218592 -2 -2 0
1158 0 2 0 1.5026148085610231 0.9321885891254733 2.6650762528525753 0 0 0
345 0 2 0 6.732051417867808 0.5436824552474202 6.467047986950201 0 0 0
793 0 1 0 -0.9526728444510852 14.918831603606879 0.5327452562255715 1 1 0
780 0 2 0 2.396333295647397 11.47796649001489 3.297846364322221 -1 -2 0
635 0 2 0 9.294343822755522 7.58791270388383 -0.18549536111438059 0 -1 0
383 0 2 0 4.176101074458245 8.69802984614951 7.586220468724239 -1 -1 0
372 0 2 0 9.33035685620367 4.527478981161482 0.7807027250225784 0 1 0
1235 0 2 0 10.155091652290828 8.40401550067331 12.237976390808273 1 -1 0
764 0 2 0 12.018341510910625 -2.793368477804462 13.657779486758635 0 -1 0
452 0 2 0 -7.027939974324472 12.919532419217145 14.797270240711237 1 0 0
196 0 1 0 6.074688966438994 -1.7652703097132858 8.603830806959794 0 1 0
517 0 1 0 7.873237605665063 8.514380336633682 2.2997197280380277 -1 -1 0
54 0 2 0 -3.5789551731463636 8.697595898073574 14.323728540545188 1 1 0
656 0 2 0 -0.2211101876926419 13.109583079025551 14.686612862708435 2 2 0
465 0 2 0 -0.019986182340126002 10.087045356748229 4.993015339630928 1 0 0
440 0 2 0 7.491481263123194 4.888649002782733 7.443179527694607 0 -1 0
986 0 2 0 7.8154234353792855 5.333783953648421 12.31583305701488 0 -2 0
359 0 2 0 -0.5863599291002821 6.982677498888349 3.751831251308716 1 -1 0
856 0 1 0 -3.886947272992826 15.252360625292251 14.72386107163534 0 0 0
518 0 2 0 7.942816150399558 8.898411076368781 3.2366974532339112 -1 -1 0
842 0 2 0 9.758376847509368 6.636893856699784 13.43010589742693 0 0 0
788 0 2 0 7.790062550802999 7.798061362155091 7.5319946176128365 0 1 0
582 0 2 0 3.5774621583495976 5.471653510293644 0.6044232939532901 0 0 0
2365 0 1 0 10.877207042293119 8.491794866751196 3.322131383222988 0 1 0
916 0 1 0 10.176969248444413 0.668847755920349 13.323565870455019 1 2 0
326 0 2 0 6.605944335067561 15.762351613865487 12.862472141430656 1 0 0
866 0 2 0 12.436799702166125 -0.2168027187977799 3.919855707821765 2 -1 0
63 0 2 0 1.6837891771120406 5.062827254115689 11.183026606378997 0 -2 0
219 0 2 0 1.7535016741542107 4.520138825978637 0.7053767508797166 0 -1 0
86 0 2 0 -1.616128769847907 12.67130567254941 2.69026787741814 -1 -2 0
855 0 2 0 4.273103521409348 10.905887626491001 5.26094311080887 1 -2 0
714 0 2 0 0.858738697262885 4.1627703966698215 8.879674786965108 0 0 0
1141 0 1 0 -1.9197935971020794 19.16749500034663 4.565278805914362 -2 -3 0
891 0 2 0 3.790734267848108 10.715663597626774 -0.697076050980973 1 0 0
211 0 1 0 -8.18859419259977 19.3159423445551 4.9003892897713754 0 -1 0
1269 0 2 0 4.374887203155667 9.878111625402934 10.27021097797268 0 0 0
309 0 2 0 6.504311223036686 -1.3630097419195906 14.981521657480036 1 2 0
641 0 2 0 6.949067887145947 10.032240617465055 8.37475336839024 0 0 0
1284 0 2 0 -0.852223328694443 4.4485476470421625 12.145917913776884 1 1 0
972 0 2 0 6.044414980402082 7.231636960136037 11.378358668117198 1 2 0
268 0 1 0 4.386738767543564 18.347854561649516 1.2251196115823326 -1 0 0
426 0 2 0 2.1806479986063634 6.236216363297133 14.261375858586147 -1 -1 0
995 0 2 0 -0.43690393941526623 15.398612697108522 12.181376049571504 1 3 0
713 0 2 0 -0.4692826207915333 4.053144007848894 8.264444015371192 0 0 0
148 0 1 0 3.3977011897625027 14.062196797117963 -0.6928132980009243 0 1 0
2450 0 2 0 -4.06630769052567 15.540531819090376 -0.8267365727732019 0 0 0
569 0 2 0 2.9685781705137755 -3.074832844314384 9.752769072623769 2 2 0
14 0 2 0 6.602522828245077 14.29938102508257 -0.1162862098978672 -1 -1 0
457 0 1 0 5.686713373963043 17.14730364044049 8.96235665630826 0 0 0
264 0 2 0 0.746460345348793 2.63032649512785 4.656939048700477 0 0 0
49 0 1 0 5.841217152301117 1.9826044853292348 6.406277881423887 2 3 0
932 0 2 0 0.0834445950663546 15.217718892662095 14.325328205697978 -1 -2 0
996 0 2 0 -0.5178850771081613 14.651617310355476 10.82715785712794 1 3 0
451 0 1 0 -6.34258161154765 12.358097994817154 15.268427538796473 1 0 0
367 0 1 0 -6.625397105400324 15.95419312818067 14.693980648884514 1 1 0
1053 0 2 0 11.471510689353105 1.8616253367522277 2.7050402982372526 1 1 0
540 0 2 0 4.990003573180979 14.095676079893776 4.9405159429582595 -1 0 0
1155 0 2 0 5.306668088047096 16.61140677749353 4.392182523581285 1 -1 0
898 0 1 0 7.696282216078494 8.176632880644377 10.80439340516406 -1 -2 0
981 0 2 0 2.97693018941826 5.2726673424581465 3.50552654192228 0 -2 0
2244 0 2 0 -5.828552368380018 13.08206914163366 5.297478444204968 -1 -1 1
974 0 2 0 4.271810163100076 0.7650979724647087 0.9816415658041682 1 2 0
1192 0 1 0 0.10777177245055278 15.701478051120136 3.722212096812349 0 -1 0
2337 0 2 0 -1.6331928141066305 5.148729276981609 6.438720889769616 0 0 1
114 0 2 0 9.356260105996443 0.37560324800055733 9.959734376470522 -2 2 0
915 0 2 0 8.998028184619484 1.4023836946371406 7.7784475290066695 -1 0 0
1133 0 2 0 7.888797691939839 8.799426249590308 13.746678678611449 1 2 0
778 0 1 0 3.0663700133175915 11.079768834324405 2.6519812503836686 -1 -2 0
741 0 2 0 9.411272276807473 6.021557703448661 7.120857566716998 -1 0 0
1249 0 1 0 11.68883432665798 2.2908182712371388 10.364181448899831 0 0 0
935 0 2 0 1.628362791213779 7.275095044516228 3.1093799530979487 0 0 0
659 0 2 0 -7.014366242416241 15.248501952715046 12.898578478773011 2 0 0
55 0 1 0 7.334308029337217 1.8526723841124122 14.938035317748863 1 -1 0
100 0 1 0 -2.637820984745871 7.2892119744825274 11.35673434577517 1 1 0
70 0 1 0 3.1511303082707984 15.353104260914076 11.545687607662435 -1 -1 0
605 0 2 0 -0.017677601752755123 17.21009060001239 2.9728033358761476 0 0 0
1148 0 2 0 10.971119919254564 4.087022784418347 7.642148883257596 0 -2 0
1432 0 1 0 6.197364011296932 8.014750425353512 14.11762286708626 0 0 0
314 0 2 0 -0.9430762748520212 8.019522540619207 7.33164109356831 1 -1 0
717 0 2 0 6.39532809299025 -2.12767467245902 11.738171082691656 1 0 0
581 0 2 0 3.147319201344733 6.9285363605866515 0.42851519209293776 0 0 0
1275 0 2 0 0.6831626903187261 1.9927700032098974 8.299095083241383 2 1 0
627 0 2 0 5.704882390753632 6.921516471024933 3.4474272245834445 1 -1 0
1024 0 1 0 -1.1480243730434325 10.801717226755898 13.264524473847962 2 2 0
255 0 2 0 -0.5875616989952764 17.72140241134305 0.6659185992350325 0 0 0
651 0 2 0 -3.165441043016356 8.216464132616867 3.5950454148298396 1 0 0
616 0 1 0 0.14938200093359366 13.199078808694304 10.01525891189844 0 0 0
71 0 2 0 2.5426578799013684 15.883546592303407 10.971837276095052 -1 -2 0
220 0 1 0 -2.671402152609604 5.441666302517179 15.053496615769877 3 0 0
1007 0 2 0 9.170719661833001 13.011651295575739 5.534710711350027 1 1 0
970 0 1 0 5.136086538564954 7.1978018420591505 11.760690762495818 1 2 0
353 0 2 0 -3.4810263640320187 13.002643784047205 12.614648458623913 1 0 0
1271 0 2 0 2.337148104221356 7.72477695955952 5.45915533434317 1 1 0
1038 0 2 0 0.1900680425800943 8.52431445698117 12.728058169171645 1 2 0
218 0 2 0 2.6816462811962354 3.6486541228901 -0.11011250495714653 0 -1 0
284 0 2 0 11.27802643873965 4.307092104599722 4.418958381221443 0 0 0
117 0 2 0 0.5536870709289291 9.699294233361758 2.1888987650030263 0 0 0
329 0 2 0 9.254240758798945 4.677783962978408 14.921561420886576 0 1 0
1138 0 1 0 5.495171379656018 3.0374143792003045 -0.8550306940440275 0 -1 0
37 0 1 0 7.460092305362693 11.233494826423856 1.0410412939337506 -1 0 0
634 0 1 0 9.732873511246082 8.195175224532434 0.4195145771627735 0 -1 0
534 0 2 0 -2.0996207641352664 18.018906719180837 8.854698731133338 1 0 0
105 0 2 0 12.82349241624483 1.630645950112409 -0.3874172269398861 1 -1 0
862 0 1 0 12.71732391040472 -2.107410347537794 9.715726925026097 1 0 0
555 0 2 0 -6.8542276073998325 18.73219301336379 1.7342871551321464 1 1 0
1219 0 1 0 2.3918390364489355 2.5705552958742586 10.762301010586185 1 2 0
650 0 2 0 -4.221861973510563 9.031379425200038 2.798645002888972 1 0 0
849 0 2 0 4.595912799223194 17.038536451795288 2.1760616107956032 -1 0 0
930 0 2 0 5.00862928812309 1.4283829957412477 9.23693553022119 0 1 0
368 0 2 0 -5.9030281869786485 15.292886694839957 14.877128884082213 1 1 0
748 0 1 0 6.839581856285228 12.506534149940821 14.41862958942133 0 0 0
2315 0 2 0 -1.1318225755033378 13.705099907286481 -0.7736545085913105 0 0 1
133 0 1 0 12.812418366658964 1.5874844850764536 6.58385133135266 2 4 0
790 0 1 0 4.9741783699094 12.675616362873672 1.3662798304471981 -1 -1 0
725 0 2 0 -1.9331983362619838 6.3660913175753775 -0.20256774265991506 1 -2 0
655 0 1 0 -0.9834584935208306 13.598716851052021 14.511645472116133 2 2 0
1520 0 2 0 9.590564230048072 -3.4344881827199734 13.63793383763251 1 1 0
330 0 2 0 9.978046172759026 3.8248930969705244 13.738183487048351 0 1 0
1250 0 2 0 11.281799178477293 1.453388769242507 10.187658741572065 0 0 0
576 0 2 0 10.836115752741565 5.172080923876621 10.471584649488664 2 2 0
523 0 1 0 4.979670307395882 10.918287577100916 13.358614635408731 1 0 0
74 0 2 0 -4.6568582548308255 9.72470964238357 9.419949652409361 1 -1 0
562 0 1 0 3.0137927287246673 12.54267579543356 9.493371029300835 -1 -1 0
341 0 2 0 -5.179016866848864 17.24801980803725 5.326098488582406 0 0 0
293 0 2 0 3.826566249876318 17.36228741735429 6.122987351268692 -1 1 0
13 0 1 0 6.787750622159706 14.887400529780777 0.6530285228000043 -1 -1 0
132 0 2 0 6.456488562056454 11.356891563477497 10.219490876649267 0 -1 0
1037 0 2 0 -1.1071426279458254 8.186803111183693 13.340091844302759 1 2 0
57 0 2 0 8.105051485915643 2.459688163341494 14.678909373896849 1 -1 0
90 0 2 0 -0.44093553052955126 5.622273735172612 9.80955823601236 1 0 0
12 0 2 0 -5.325591703296022 14.864548920509863 4.116679079379729 0 -1 0
1097 0 2 0 -3.2534579869126254 16.338760648483955 4.078852978247386 1 -1 0
305 0 2 0 -4.330026612847356 18.25141962336778 1.0900096191277382 0 -3 0
1060 0 1 0 -4.348886173754848 11.737234514482926 13.174170371690034 -1 -2 0
156 0 2 0 4.369572957118633 1.9962482513316644 14.694867839469495 0 1 0
51 0 2 0 6.254852047058314 2.882166256554247 6.588221865837458 2 3 0
2443 0 1 0 1.7441017039848685 7.895726755048126 0.12800412331768718 0 0 1
69 0 2 0 -3.795652953991305 14.91612471087793 11.503300683021193 -1 -1 0
712 0 1 0 -0.02757466802902253 4.050652056608054 9.135714111976753 0 0 0
85 0 1 0 -1.1994263397167908 12.966496916204628 3.5398296031643373 -1 -2 0
2223 0 2 0 10.417114040599817 2.5239160859208205 5.937400968254358 1 1 0
1043 0 2 0 3.0516229688325387 -1.3733964359005286 8.138260424089928 1 2 0
1036 0 1 0 -0.29682494104299334 7.745190298393851 13.080815235806904 1 2 0
2444 0 2 0 1.3893090524882423 8.291930093016044 0.8750551264331232 0 0 0
716 0 2 0 6.818225441987183 -0.6994069413300426 11.461956565183408 1 -1 0
438 0 2 0 1.2456920758232355 12.15174894078318 5.216984923065147 -1 -1 0
1272 0 2 0 3.632876625097508 8.688045571015838 5.062726947795029 1 1 0
728 0 2 0 1.2371042593620467 -3.4532780327357906 11.68339365345277 1 2 0
1593 0 2 0 3.8326935576388514 15.25134641568345 13.409536784340164 0 -1 0
1143 0 2 0 -2.552980055381917 19.549460783221846 3.941249682029982 -1 -3 0
328 0 1 0 9.211977473342639 3.847493320806839 14.351796141138136 0 1 0
727 0 1 0 0.4411136799089098 -3.2278090249163878 12.172187872966662 1 2 0
2583 0 2 0 9.107252744535355 10.856534033641786 8.413074625369699 1 -1 0
694 0 1 0 7.901333566248658 5.231401246062692 1.4654905937710967 -2 2 0
537 0 2 0 4.159767148767437 -0.8732491550458623 11.646295001997087 2 3 0
198 0 2 0 5.206076997336612 -1.8526227379084708 8.28241412286574 0 1 0
585 0 2 0 4.561713686228264 0.7838298004003796 12.874859785917865 0 0 0
404 0 2 0 -7.505579588550577 18.26004921325584 -0.7052889080422966 1 -1 0
1495 0 1 0 7.805843932280385 13.391383992588215 11.43390832209849 0 -1 0
375 0 2 0 6.254497976437314 4.279449065704325 1.8451606699306051 1 2 0
933 0 2 0 1.5409074771448301 15.577158238697887 13.94927006876436 -1 -2 0
979 0 1 0 3.778345533875225 4.809497772987178 3.896416519403936 0 -2 0
784 0 1 0 6.492401674634498 6.802604618744328 -0.6774052341034094 0 0 0
911 0 2 0 8.071971669861398 1.4035597313694028 11.41977376631694 0 2 0
678 0 2 0 1.6951388589776797 10.838394134723838 12.162616943151608 0 -1 0
1149 0 2 0 11.743040784228393 3.5946135550642437 8.85239680041959 0 -2 0
377 0 2 0 7.069932658402383 17.90826085917479 0.7045878446996361 1 0 0
675 0 2 0 1.7009911935081807 16.408435450500953 8.871486244386244 0 -3 0
498 0 2 0 4.015734388608369 4.290953747407575 11.461600311586453 -1 0 0
657 0 2 0 -1.6861282308890122 13.588931406751009 15.240943912238329 2 2 0
909 0 2 0 4.463171519285449 -2.768285486715283 13.974558979187838 2 4 0
674 0 2 0 1.3987561574179859 17.420352836433217 10.10918742582974 0 -3 0
749 0 2 0 7.78421400073817 12.250250258753418 14.575961876857919 0 0 0
2192 0 2 0 0.9082709828242714 0.6944993953903991 14.403844709319644 0 -1 0
464 0 2 0 0.6117876817690666 8.798466237777633 5.5831320177548855 1 0 0
2486 0 2 0 4.0902895893056295 15.792436533700004 -0.8114025190645204 0 0 0
1090 0 1 0 6.681900209897372 4.062404723200317 13.201726041745848 1 1 0
903 0 2 0 12.670024390047386 4.611799251044839 2.756631794697388 -1 0 0
985 0 1 0 8.468243641970044 5.934844125483158 11.934305431468978 0 -2 0
313 0 1 0 -1.650823857605159 7.379982497149843 7.533966606209551 1 -1 0
783 0 2 0 1.5877178364029545 20.090284483515774 1.1219836453178917 1 1 0
936 0 2 0 1.1070876435448942 5.97163494956577 2.367158374526524 0 0 0
1120 0 1 0 0.04417227125361041 10.934741131828943 0.9469650944557972 1 2 0
1067 0 2 0 7.656318202512846 16.864551361029225 3.2491407227999822 -1 -2 0
134 0 2 0 12.49037646131282 2.349364566642663 7.135630945156214 2 4 0
435 0 2 0 6.0785285905899435 5.5069946117453785 5.627296269273894 1 1 0
89 0 2 0 0.32117872977843726 6.980474360610922 9.85286886861387 1 0 0
869 0 2 0 9.176171890121081 10.69061872421651 11.98093368944864 -1 0 0
1074 0 2 0 9.15374275262858 -0.24393982562639227 3.8703114700568424 0 2 0
424 0 1 0 3.019526621757514 6.251184658817152 13.796559004811826 -1 -1 0
1252 0 1 0 6.496575791678289 -4.01136968943636 12.5283609232858 0 -1 0
787 0 1 0 7.180902067027904 8.007742498165323 8.190787258658464 0 1 0
668 0 2 0 0.47926131270306627 20.668818548755134 -0.9266192639684689 1 -1 0
1061 0 2 0 -4.75033261680247 11.02279706900134 12.693585937868024 -1 -2 0
62 0 2 0 2.3558003029775705 6.124775545160732 10.181687727565066 0 -2 0
684 0 2 0 8.643899557177448 -2.8807005912040147 10.628823311556694 1 0 0
1098 0 2 0 -2.595531328593197 17.438407884187708 4.920124626426084 1 -1 0
285 0 2 0 12.17201600349176 5.630708091188199 4.681895863603882 -1 0 0
130 0 1 0 5.542826773483409 11.243505288972246 10.545283320161396 0 -1 0
245 0 2 0 -0.4207172108181005 4.442993472001039 1.4451720299038624 1 0 0
554 0 2 0 -6.17519053635509 19.77700061711304 0.7697454631432881 1 1 0
2379 0 2 0 -3.8338311266231244 15.29418689911472 2.607208286060897 1 -1 1
584 0 2 0 5.840726654914534 1.6411973647723528 13.577533530302434 0 0 0
1163 0 2 0 2.9513388820332596 10.634457611055904 7.128644855017576 1 -1 0
773 0 2 0 -1.873293369297351 15.441936616007663 5.7054407842464885 -1 -1 0
343 0 1 0 7.206224530199512 -0.28562406846975996 6.645709785097676 0 0 0
1119 0 2 0 7.6457315375182295 14.747150813793702 6.55324571295127 0 -1 0
163 0 1 0 7.59573541108129 9.541746341132825 4.834763835386933 0 3 0
2162 0 2 0 2.4309079006485415 1.4570662432392083 -0.8943424382628308 0 0 0
113 0 2 0 10.189700059944967 0.0932007979221603 8.678306767692701 -2 2 0
1283 0 2 0 -0.4978828901999502 5.942347578116941 12.288560583069556 1 1 0
487 0 1 0 2.53374198197805 14.930203954084323 7.7045786708035795 0 -1 0
149 0 2 0 2.648999564154172 13.712216721971318 -0.2071227898103053 0 1 0
928 0 1 0 5.618825733146126 2.1269837739738215 9.52388943602547 0 1 0
253 0 1 0 -0.5067344365913391 17.40184054501926 -0.2422601324256909 0 0 0
64 0 1 0 1.0746124575429103 -0.600410819840925 10.165494039354606 1 1 0
387 0 2 0 -0.67557938400933 2.0725973712162133 13.24384571085189 1 0 0
439 0 1 0 6.608311552687994 4.5372223408983565 7.162681777270198 0 0 0
1147 0 1 0 11.884583651568546 3.82068546442437 7.8928208217757 0 -2 0
779 0 2 0 3.718599404723994 10.69635549578013 3.2881670773370386 -1 -2 0
897 0 2 0 0.9249415049865183 12.612313323422889 0.6995232179758359 0 -1 0
1424 0 2 0 0.10867997938617535 9.984892446373712 14.851431607091206 0 0 0
976 0 1 0 13.448916727162432 3.3651687937621535 -0.35507161395091047 0 0 0
1238 0 2 0 14.42752714550298 -2.2740451655949605 14.647506387373358 0 1 0
794 0 2 0 -1.614501220478681 15.063141976418612 1.2050693625492603 1 1 0
448 0 1 0 3.346860122798741 8.916356980609343 14.580113556352371 0 -1 0
750 0 2 0 6.389820510060435 11.887480326433408 13.803503511953002 0 0 0
977 0 2 0 13.519982129078096 3.6865132371404066 0.5449658457890794 0 0 0
354 0 2 0 -2.1312056321284523 13.746859218385147 12.658062641292476 1 0 0
455 0 2 0 2.47578800725604 14.145899672015776 2.3502042653014077 0 -2 0
908 0 2 0 3.4738522995595305 -2.7650797385142196 12.759590736907366 3 4 0
1172 0 2 0 -1.4992902563434924 12.952287256734305 8.928468396847554 0 -1 0
617 0 2 0 -0.14936540394263126 12.39509107503569 10.43454016328028 0 0 0
256 0 1 0 13.03039867681237 1.4648330629654904 3.95567110550164 0 1 0
1096 0 1 0 -3.140767385658076 16.604539791847966 5.035374645034735 1 -1 0
2221 0 1 0 10.127263331840325 3.3108566513766444 5.485742905232812 1 1 0
660 0 2 0 -6.106919759712207 14.912275217798356 11.790092899329538 2 0 0
755 0 2 0 -5.192063449385887 13.505118035670776 9.71308768748741 -2 0 0
347 0 2 0 14.086739976572835 -1.597362086434569 4.0633626207702935 -1 0 0
900 0 2 0 8.080665464035958 7.452393091726 11.299570011787331 -1 -2 0
899 0 2 0 7.886420765200033 9.02592800112311 11.270017320788964 -1 -2 0
539 0 2 0 3.5666949613709615 14.255200531396525 4.468436678573808 -1 -1 0
1592 0 2 0 3.785264341278911 14.892103165456787 14.921253152046862 0 -1 0
826 0 1 0 12.186317175788378 -0.770700172495804 12.08686100256537 0 -1 0
914 0 2 0 8.776319896039675 0.48144370457297736 6.596234252619277 -1 0 0