LAMMPS data file via write_data, version 23 Jun 2022, timestep = 178817000

2592 atoms
2 atom types

0 30.923 xlo xhi
0 21.319344 ylo yhi
-0.8962640860439137 31.618859086043855 zlo zhi
-9.137482 1.1353963323842429 -10.685966274519545 xy xz yz

Masses

1 1.008
2 15.999

Atoms # full

256 0 1 0 -3.8448250173804417 13.315663630512855 14.180879669092299 1 1 0
1424 0 2 0 2.20782360922553 8.072189783559299 15.170334902476156 0 0 0
772 0 1 0 -6.630383103072965 19.36563008852756 -0.36367673230234354 -1 -2 0
466 0 1 0 3.6142885443307975 8.89757763413407 6.597112618585906 2 2 0
1111 0 1 0 10.373505487232766 4.645713808243851 10.177893170133467 0 1 0
963 0 2 0 -0.9842173407822619 17.584689065879154 7.286908462543824 0 0 0
918 0 2 0 2.4928568570717977 3.497686243515076 9.178705738798369 1 2 0
889 0 1 0 3.1583739806479834 9.21413564751091 -0.344231890100811 1 0 0
799 0 1 0 3.8911954105943805 3.2276404957232785 12.54562684624404 -1 -1 0
663 0 2 0 -3.698031984299507 15.215091840346375 10.252334021812345 -1 -1 0
110 0 2 0 1.30984751250742 10.799871846268712 0.9596562602556178 0 -2 0
1156 0 1 0 7.1174016435973435 5.934611259178327 14.300697076640919 0 0 0
43 0 1 0 -4.477556560156304 12.883509751717032 3.158456622659962 1 -2 0
123 0 2 0 13.438693932149402 -3.60267903127893 13.680792944141379 0 1 0
2185 0 1 0 0.3357857757691286 14.807327022276821 6.291881312669328 -1 0 0
724 0 1 0 -0.6303936544521235 5.02841483048977 -0.17353993708353166 1 -2 0
544 0 1 0 3.944038338050752 0.2653067774984552 5.458279129473965 0 2 0
583 0 1 0 5.995685623816008 16.952072946482208 11.327331223829919 -2 -1 0
890 0 2 0 2.975181559317764 8.280822518333014 -0.32744835994901644 1 0 0
313 0 1 0 2.170685400919355 16.477578343256425 8.743902420584398 1 -1 0
283 0 1 0 0.20970117573834396 16.859787880262516 2.483100581436677 -1 0 0
1042 0 1 0 4.59747086539869 1.4003017393311943 9.681795858091345 2 3 0
916 0 1 0 3.07028043701374 4.017782582559575 9.806029726147754 1 2 0
410 0 2 0 -3.623432964526389 6.907171063160066 9.821144828474518 1 2 0
358 0 1 0 -4.107998718245398 15.291666248716345 5.188170457870797 1 -2 0
658 0 1 0 4.559088451017909 -3.908746340355276 13.064934319466325 2 1 0
655 0 1 0 6.792826562321554 2.401028184447184 2.5275208314147433 2 3 0
324 0 2 0 0.021530536220342192 6.5252338442772 2.5055192197083906 -1 0 0
652 0 1 0 0.936107620506635 9.952710922669143 8.739395106215715 3 0 0
39 0 2 0 6.961947537141611 10.120271729216793 1.1236375785002952 -1 0 0
998 0 2 0 11.33647699555635 1.3149334507853836 2.3758705043764867 0 1 0
2401 0 1 0 -3.0035409933381727 10.154076207333024 9.590615490918385 1 1 0
854 0 2 0 1.6011847992376582 0.8217040073458852 6.8535027439043885 1 0 0
2343 0 2 0 7.510846999901022 8.34752145277464 0.11048859902008346 0 0 1
613 0 1 0 3.5962343860481645 0.0040428674156451905 2.3536490472887364 0 2 0
691 0 1 0 10.71168425212309 -2.2428665064792277 11.926725722434279 1 1 0
1157 0 2 0 7.661188625706474 5.517163917955566 15.02981832083187 0 0 0
699 0 2 0 8.225517544233064 12.999019294301988 6.405621228269042 0 1 0
103 0 1 0 13.315250504793802 -0.2826781499846215 0.36968636307051317 1 -1 0
848 0 2 0 5.69879696755061 14.57725932373226 3.2540799775942375 -1 0 0
1325 0 2 0 9.057620310168357 3.4102293553250274 12.831819760042064 1 1 0
1047 0 2 0 10.244791208767124 7.072541601464517 12.102787998180009 -1 -1 0
254 0 2 0 0.9320158207747786 16.26039762444018 -0.3732819154512306 0 0 0
575 0 2 0 -1.0684147180979222 11.643237216462884 4.276436798136452 2 1 0
657 0 2 0 6.553251957488008 2.4129058343950325 1.5837399665675878 2 3 0
158 0 2 0 8.713771851701852 7.100121315641523 7.728701020098926 1 2 0
1143 0 2 0 0.799041669821111 3.704665779103327 12.312577861153004 0 -1 0
41 0 2 0 6.379973998271191 -0.41152542495936295 12.565831049217898 0 1 0
373 0 1 0 7.22559800919428 6.014751800912215 2.310775145212847 1 2 0
808 0 1 0 4.994816888560574 3.929462082890624 15.183828343317767 1 1 0
1144 0 1 0 8.931316659930948 -1.0629637566048655 8.410635223142735 0 1 0
72 0 2 0 -0.5572138326374523 6.385346013042465 7.516783949818512 -1 0 0
807 0 2 0 6.8547906017000075 2.7959962707298756 11.656918232253451 0 -1 0
440 0 2 0 -0.6351060947725771 9.899192444225296 1.0714777883816295 0 -2 0
605 0 2 0 -3.8512171700630464 9.797751054729664 12.819143683713895 1 1 0
975 0 2 0 4.898606937031521 -0.5566126987860073 1.472217000742182 1 2 0
660 0 2 0 4.939348333024611 -3.153102337440936 13.506169356266843 2 1 0
1339 0 1 0 -1.8980930458527627 17.206007277577726 4.39299377796107 1 1 0
966 0 2 0 9.737746453350777 -1.2427364150412203 3.7555081041242184 -1 1 0
51 0 2 0 -1.8389870870633016 11.311735468759894 12.429266481267465 2 3 0
1233 0 2 0 5.603355112349076 -1.7904373602358397 15.261651419007553 1 2 0
1341 0 2 0 -1.445177076816724 17.436702177560946 5.2143993167598435 1 1 0
897 0 2 0 0.8285775151120198 7.874944360031794 6.154419696279862 0 -1 0
643 0 1 0 -0.039274096181853846 6.586949889056287 13.794412030077138 2 2 0
776 0 2 0 10.710180233301186 6.029077118321446 3.5556404469439338 1 0 0
2473 0 1 0 -0.0710396376500233 12.390795757492167 14.764173804307092 0 1 0
651 0 2 0 3.519538073626821 6.043088849154884 0.6815312540475025 1 0 0
315 0 2 0 2.0394747592940283 15.608610357617968 9.192035827008736 1 -1 0
242 0 2 0 -1.9768655366208727 12.712412839619939 6.228830469256881 0 0 0
102 0 2 0 10.076078367415123 7.5892248408426335 9.872438320438619 1 1 0
356 0 2 0 3.0368224802913883 7.02624297803381 8.729173875761104 -2 1 0
422 0 2 0 6.607223386468211 12.274531153894335 2.818600103816653 1 -1 0
598 0 1 0 5.51858820857328 -1.3707051179274803 9.772000606730776 1 1 0
1022 0 2 0 13.93951276778602 2.9755113441817183 0.4355701279867057 1 1 0
2438 0 2 0 -3.4584160774707033 11.815791913690834 4.5981611107932325 -1 0 1
667 0 1 0 1.2392909057945154 19.691996320939953 -0.29349479509103127 1 -1 0
746 0 2 0 -5.996421511657286 11.648643584091815 11.168675190662743 -1 -1 0
50 0 2 0 -0.4109534993816943 11.100566192889328 11.800200816505539 2 3 0
743 0 2 0 5.647479954515914 6.807243179183705 14.886778159709857 1 0 0
233 0 2 0 2.884564581382711 12.597402689495548 9.265989802296962 2 2 0
111 0 2 0 1.9915129432053578 12.006709505465505 1.627309955186738 0 -2 0
1264 0 1 0 8.167337803559867 4.200550517718321 8.556028142937414 1 2 0
1180 0 1 0 11.090734588961041 2.485565325995376 7.566112163318262 1 2 0
2187 0 2 0 0.8055148361524975 14.674115922834073 5.487278422080282 -1 0 0
389 0 2 0 -4.974565783657001 12.654755071546232 6.6108570856793385 0 0 0
1235 0 2 0 10.838315483403568 5.339219444359873 7.01396248321441 1 -1 0
112 0 1 0 0.7546873920116249 -3.448776465259502 15.187412177087388 -1 3 0
717 0 2 0 -3.9915323540343497 12.420252580428436 12.334626054121953 1 -2 0
974 0 2 0 -2.7799687726943456 20.412806751865265 0.9072552420372049 1 1 0
270 0 2 0 4.728495638874103 16.392738982888787 0.0017761285458754994 -1 0 0
2403 0 2 0 -2.681192054703337 9.339391940994684 9.990753564068335 1 1 0
964 0 1 0 9.334075879581478 -0.8584841179557436 2.9576129556707107 -1 1 0
22 0 1 0 1.34088553381452 13.775581285723598 8.75410864990439 0 -3 0
563 0 2 0 8.060016303914233 1.8251625175371275 6.28596675759091 0 0 0
624 0 2 0 -1.5393510018289702 11.688680512696914 2.123177500059013 1 0 0
1274 0 2 0 13.589321416706234 -1.1341097654560581 11.003714566564321 1 1 0
644 0 2 0 -0.6163181103915127 5.8551072035351 13.433360324740537 2 2 0
599 0 2 0 6.17869518844991 -1.1072732198640072 10.426913069642627 1 1 0
375 0 2 0 7.232856660032036 5.532289450498021 1.4612854234920825 1 2 0
387 0 2 0 -0.36577994616293175 8.706678182271087 7.913461435160661 1 0 0
94 0 1 0 10.779786976290861 9.280547878670761 -0.3031874115219402 1 0 0
773 0 2 0 -7.547847626619977 19.14177570306874 -0.07987882025853055 -1 -2 0
1087 0 1 0 7.053941157982963 14.27636533473107 13.136128716805837 -1 -2 0
14 0 2 0 6.752290447318069 12.883541075137153 0.09773333269784923 -1 -1 0
386 0 2 0 -1.4320062894978318 8.424279400212638 6.8236376074381395 1 0 0
121 0 1 0 13.423856430603458 -4.512123072308884 13.340835764894189 0 1 0
15 0 2 0 7.274402474372891 14.29677678823772 -0.051218378269347165 0 -1 0
2437 0 1 0 -2.670700289171234 11.490499182832247 5.078653919396447 -1 0 0
359 0 2 0 -3.2839296670581413 15.634171488471038 4.801553529488262 1 -2 0
770 0 2 0 7.442696712667946 9.324402812489913 11.287038212642114 -1 -2 0
733 0 1 0 -7.495142415868598 19.79898361543368 3.5655810139759927 3 2 0
1070 0 2 0 4.056830723528432 -1.8159891910573838 10.42142839200585 1 0 0
695 0 2 0 1.7059469057614245 3.471648777182253 7.146865635337996 -2 2 0
622 0 1 0 -2.116455095302811 11.12258115068196 1.6031556842457393 1 0 0
675 0 2 0 3.982654734149295 2.964520771157342 2.631894910766743 0 -2 0
1080 0 2 0 12.54535570597191 2.905520274545595 6.457008638518171 -2 -1 0
967 0 1 0 4.339165739048348 6.025094008993708 7.868435352160983 2 1 0
234 0 2 0 3.7656103604067592 11.356503553053512 9.612760934631485 2 1 0
565 0 1 0 5.552428104364561 5.283512009924565 12.043211919135496 0 1 0
850 0 1 0 10.271089967817073 -1.7292007862456726 5.358028846405997 0 0 0
749 0 2 0 2.629692968221867 -1.1071416616740148 8.176241112051484 0 1 0
931 0 1 0 -2.6352317658647566 17.6181076597217 8.553388007359791 -1 -2 0
98 0 2 0 6.888528819002493 -0.22206558892990103 14.578636296297905 -2 -3 0
855 0 2 0 2.078534755840113 -0.14330862608641848 5.794929142068971 1 0 0
68 0 2 0 4.846549866803709 15.865577790869622 8.78303248089219 -2 -1 0
1209 0 2 0 14.047493333262155 -3.388455301821553 9.973486741653298 0 1 0
594 0 2 0 9.7817486247048 8.554978517533534 6.232569247048949 -1 1 0
213 0 2 0 10.417219331002524 -3.5162764281448577 13.043792466015914 0 -1 0
1181 0 2 0 11.191633745606799 2.3078585244869596 8.5167093521725 1 2 0
1139 0 2 0 7.018787073029263 2.0425982095252473 -0.5131015830569263 0 -1 0
1015 0 1 0 -1.2878554342081396 19.39780116695543 0.9567572809728384 1 -1 0
1295 0 2 0 7.830437292936306 -0.45835658817438707 3.4386800397740007 1 1 0
206 0 2 0 0.8708177079010174 10.594187484253311 3.7669288117504056 0 0 0
1116 0 2 0 10.759497991441135 -0.995197542238268 8.14855201876071 1 -1 0
253 0 1 0 0.017908134316544734 16.047090022494583 -0.045966624511104115 0 0 0
1127 0 2 0 -4.1716742555906015 9.624764679680023 8.451410291305432 0 2 0
339 0 2 0 6.517734042850701 14.554180371724184 5.5798040209929765 -1 -1 0
243 0 2 0 -2.080918340374251 13.993928342159524 7.1247759978610254 0 0 0
666 0 2 0 2.826622789833951 11.372157947516868 14.694568000718586 1 -1 0
38 0 2 0 8.414048386504607 10.34169315035534 1.2830619070973346 -1 0 0
211 0 1 0 9.74606802400816 -3.9604309553146386 13.612074143456992 0 -1 0
2531 0 2 0 2.6541542545623398 -3.405777521230487 12.2630150705047 3 1 1
2342 0 2 0 7.367355026188458 6.854846438966552 -0.4128267469086159 0 0 0
204 0 2 0 -1.7341596661047616 15.548950336950629 14.60875851645307 1 2 0
884 0 2 0 6.432056764966781 10.837906530893163 7.2912191452822 -1 0 0
715 0 1 0 -4.031272952343835 12.275124512138245 11.35413231939916 1 -3 0
566 0 2 0 4.9129378419344665 4.534903573639217 12.291958634264084 0 1 0
811 0 1 0 4.855035414948612 4.692446211479644 1.0073581174155113 0 -1 0
1038 0 2 0 4.461674767310198 6.76676064445838 11.461575772170582 1 1 0
794 0 2 0 0.3773369710224036 13.132808068108915 0.5495078743107773 1 1 0
874 0 1 0 6.246817223243973 17.679643087273227 6.141603969773741 -1 0 0
645 0 2 0 -0.7653326579463046 7.140614387006112 14.096576046665422 2 2 0
533 0 2 0 -0.27227610002312747 17.38971375615906 10.621651573935566 1 1 0
812 0 2 0 4.231818105834691 3.9485769040276764 0.7703499292381539 0 -1 0
1495 0 1 0 11.135049479322728 2.1879951517948557 3.820160461666508 0 0 0
1021 0 1 0 14.036091292977538 2.4419105199535682 -0.3708780424952486 1 1 0
650 0 2 0 2.0440024980928064 6.557609807988068 0.911430165154129 1 0 0
2532 0 2 0 1.4352231989683637 -4.211815631981538 12.036140305986487 3 1 1
2413 0 1 0 1.9907623373155297 0.24286951954360303 9.383823356630037 2 1 0
44 0 2 0 -4.9040453980641185 13.376509488751468 3.8819810876674596 1 -2 0
11 0 2 0 -4.641370898625436 12.261939172240591 0.22165318730042727 0 -1 0
109 0 1 0 1.6559699114249886 11.699789838856372 0.7655616811897648 0 -2 0
673 0 1 0 4.148987927841073 2.647250237783897 3.5266657832228496 0 -2 0
1 0 1 0 13.147643740388448 4.029764206734242 1.5985376584170172 -1 -2 0
986 0 2 0 7.913029777043983 1.3474375098434321 10.229620002847303 0 -2 0
10 0 1 0 -3.7808318681444115 12.304739390928981 -0.1864675963783583 0 -1 0
793 0 1 0 -0.5225795192477205 13.492814733289434 0.6238724352894809 1 1 0
576 0 2 0 -0.037015543291507996 12.649523210856863 3.5817301221170723 2 2 0
426 0 2 0 3.060713020772648 12.232161219054166 12.244513959513759 -1 -2 0
618 0 2 0 2.9551563544729844 15.150309765941339 6.096193660804052 0 0 0
567 0 2 0 5.977905326212651 5.478893138965266 12.89850785420692 0 1 0
1081 0 1 0 -2.273041010221229 15.099476658662638 12.904210842413976 -2 1 0
367 0 1 0 4.621752833087321 13.964693464853992 11.814917713109967 1 2 0
1126 0 1 0 -4.972774958718895 9.457362910286104 7.868739417208369 0 2 0
379 0 1 0 -2.3762063654105154 7.878046974449111 10.74884564929143 2 -2 0
1677 0 2 0 1.98802778953086 -0.40062549940292325 14.340748995985184 0 0 0
1030 0 1 0 4.040982353226753 9.86191743935279 9.116384860505349 2 1 0
399 0 2 0 -0.7512317052430597 6.759119842596491 -0.7902104939370054 2 2 0
1037 0 2 0 3.207727899212693 7.399169879387679 10.766349789209356 1 1 0
245 0 2 0 -3.337718859609333 8.23141214029379 5.17164314540824 1 0 0
343 0 1 0 4.960884240968335 0.6043152405168124 13.258023900720632 0 0 0
804 0 2 0 -3.0914851597090722 7.518267805339294 14.517811374887302 0 0 0
806 0 2 0 5.856356013475771 2.3194332472527854 10.51539920600352 0 -1 0
1296 0 2 0 6.794432833198459 0.650138458061742 3.273391580346953 1 1 0
167 0 2 0 2.347838307957258 2.802174839088541 4.282214833063625 2 1 0
735 0 2 0 -7.185626736923252 19.10748848056397 4.188998028900447 3 2 0
620 0 2 0 11.700505975212218 4.836906161416771 14.866326102099142 0 0 0
987 0 2 0 8.701046769507963 0.10354181251823125 9.624381260982805 0 -2 0
1287 0 2 0 10.301582852373325 1.5213979387661163 6.499426712551957 0 0 0
127 0 1 0 -6.216760938531228 18.276923165658886 5.285265117845158 0 1 0
1032 0 2 0 3.7828575142591108 9.581334062156351 8.219173658837022 2 1 0
192 0 2 0 -1.7503401549123292 11.249844569221436 9.195535096721809 2 0 0
546 0 2 0 4.287180707769431 -0.5997697962610249 5.3734727953880395 0 2 0
344 0 2 0 4.209148962826783 0.01659717518909698 13.085764591351037 0 0 0
105 0 2 0 13.641596471232804 0.6270319407744427 0.14744886035125337 1 -1 0
241 0 1 0 -1.5125772109473323 13.252440693013185 6.90615405685159 0 0 0
1519 0 1 0 7.4799086808799435 -3.6245610959192023 12.168904037925934 1 1 0
2315 0 2 0 -0.8941716582965561 12.141031860947088 -0.6842365842412395 0 0 1
1223 0 2 0 9.014708523035466 -3.1287651543184647 14.954380162286787 1 3 0
120 0 2 0 7.396648443361474 2.0903887844058406 13.950471695052492 -2 -4 0
698 0 2 0 8.232430015429406 14.161409628535843 7.400039659150828 0 1 0
278 0 2 0 9.886710463724588 11.044696723256017 5.935240528878556 0 2 0
2377 0 1 0 2.3759055624687195 11.414078732339098 6.481507825755579 1 -1 0
851 0 2 0 0.6649979523230444 18.880087329559643 5.910571920218245 0 0 0
268 0 1 0 4.722219753960385 16.89734867000564 0.817718561197502 -1 0 0
630 0 2 0 -5.757032150508855 16.420324441959767 7.79437867311993 3 1 0
1141 0 1 0 0.17605423334946252 2.95197413598639 12.37023916053277 -1 -1 0
1231 0 1 0 6.051435814554239 -1.9417376597382119 14.397423946368646 1 2 0
62 0 2 0 14.208583613776891 0.9077758924492965 4.458840383364961 0 -1 0
345 0 2 0 4.997581252487896 0.7993018490527257 14.262339279126026 0 0 0
173 0 2 0 6.858206982573628 7.570527517666523 6.045208046188738 0 -1 0
444 0 2 0 0.2733846199336046 4.363737724175634 1.0406862194461182 0 0 0
2162 0 2 0 -6.232129679242202 21.19032702488646 -0.592313383562521 0 -1 0
462 0 2 0 -1.2721710699158821 1.6940373189500288 6.844293830678777 0 0 0
997 0 1 0 11.184499670864307 0.8159486929172505 1.566105310502091 0 1 0
978 0 2 0 10.047975020843285 2.7045100436595213 1.947796060074162 0 0 0
1115 0 2 0 12.034888692381623 -0.15793114336530012 8.88287874606523 1 -1 0
742 0 1 0 4.816309216404038 7.326274293812411 14.97187878507001 1 0 0
1046 0 2 0 10.734257019171697 6.060450861610379 11.078008023571478 -1 -1 0
800 0 2 0 3.234309032650034 3.1179880088011034 13.199235447632683 -1 -1 0
822 0 2 0 7.433106497130846 10.787661412477306 4.25273832306045 1 2 0
157 0 1 0 8.495638296687664 7.2628661520243405 6.742720890788844 1 2 0
641 0 2 0 -1.4785942110535497 14.003603074889917 2.2956984336788073 0 0 0
2402 0 2 0 -3.204011403454876 10.693960171918862 10.372314674634387 1 1 1
1285 0 1 0 9.749575543487415 1.0837736297205174 5.753545164967029 0 0 0
604 0 1 0 -3.147326310131721 10.197782022988914 13.350837861098174 1 1 0
1675 0 1 0 2.529923837567981 -1.1741267034614111 14.367156249258676 0 0 0
82 0 1 0 0.8188956852929276 14.358806143197434 3.3479775780440866 1 0 0
1146 0 2 0 8.823540481139872 -1.8625406304335788 9.011315347295632 0 1 0
2459 0 2 0 -3.794936879133542 19.34902684913732 -0.7063753827693351 0 0 1
314 0 2 0 2.9353237854988516 16.901962443279203 9.13756709974891 1 -1 0
1497 0 2 0 10.508820658524169 1.8941503134965998 4.472049254022346 0 0 0
524 0 2 0 -0.533685042359938 2.8519554871985937 2.7592300559278886 0 0 0
55 0 1 0 4.542534503142179 11.577478174692263 4.71737406685465 1 -2 0
1113 0 2 0 9.991420751175198 4.174518973909221 10.950032456622722 0 1 0
17 0 2 0 9.823836606203928 8.260659889936555 2.524283518573331 0 -1 0
564 0 2 0 6.735474157302863 2.68036783473642 6.397949425474524 0 0 0
961 0 1 0 -0.2807298877685752 17.59895103274237 6.630654561810221 0 0 0
820 0 1 0 7.309238597336182 9.877443889115977 4.354712923054067 1 2 0
894 0 2 0 10.071393130863097 -1.0426534155600424 13.42504112013218 0 3 0
976 0 1 0 9.525520114119729 3.535048911380577 1.938280285316555 0 0 0
472 0 1 0 6.421914102201757 8.858292757861243 9.488877024173238 -1 0 0
751 0 1 0 13.767114494097237 -2.085069849568875 14.57778357332881 0 0 0
355 0 1 0 2.2698267644237498 7.416240929545321 9.177968116774379 -2 1 0
287 0 2 0 5.1577840794634495 9.406531307151432 12.390450260743991 1 0 0
1555 0 1 0 5.21949873258154 4.469516947227696 5.423665638164881 0 1 0
527 0 2 0 9.42280074989199e-06 1.6500690586506863 11.254047062965038 2 3 0
617 0 2 0 4.052166689959216 14.109155491254134 5.776286092575837 0 0 0
255 0 2 0 0.09170476046490078 16.36937357193791 0.9150436039742191 0 0 0
156 0 2 0 0.18492400610436965 0.6688278244431025 14.315498495863817 0 1 0
1173 0 2 0 6.86692478060993 -0.6194027029587053 5.828486643927072 0 1 0
2161 0 1 0 3.0061822445726056 0.8410045408113445 -0.8052258725728767 0 0 0
84 0 2 0 0.6008572176832214 15.26501154946629 3.163918461145025 1 0 0
337 0 1 0 5.726364278730615 14.954420090461301 5.106854788746639 -1 -1 0
285 0 2 0 0.9994870911971453 17.48884136203025 2.464875775843708 -1 0 0
205 0 1 0 1.737205335690859 10.242951252681134 4.065018643478713 0 0 0
246 0 2 0 -3.8973965246887534 8.389278719838588 6.669556262391702 1 0 0
623 0 2 0 -2.6541984738828615 11.73420403781393 1.0057128122471988 1 0 0
722 0 2 0 11.962157080707978 1.7885296796735295 10.75359723953796 1 3 0
2341 0 1 0 7.597769774832163 7.764580134952073 -0.6679336936631151 0 0 1
2379 0 2 0 2.7492081009606926 12.32200343263372 6.47510286156489 1 -1 1
926 0 2 0 10.301668117031653 9.86273081554988 4.177021834053851 0 -1 0
148 0 1 0 4.076579787618297 12.634209960810015 -0.5200754903682532 0 1 0
37 0 1 0 7.762670241740886 9.644645934116095 1.323708148831387 -1 0 0
809 0 2 0 4.342431212294723 4.309929121360667 14.594742290156404 1 1 0
439 0 1 0 0.1396976584074535 9.358916798996086 0.7716179160463288 0 -1 0
191 0 2 0 -1.2445889500592697 12.378823915113689 8.261946041421664 2 0 0
1041 0 2 0 2.85275207022687 7.820528642812885 12.75708426582722 2 -1 0
1142 0 2 0 -0.6943116563541569 3.4233200914983675 12.280021896560879 -1 -1 0
162 0 2 0 6.692912338897262 15.470859436157937 14.519918770011108 2 0 0
875 0 2 0 6.7964917485665195 17.250236374963578 6.8253450586445386 -1 0 0
849 0 2 0 5.941966047689661 14.180240513726117 1.7833026632736146 -1 0 0
2450 0 2 0 -3.1116917844281478 14.232739867811079 -0.5338172633442619 0 0 0
1031 0 2 0 4.8209865084657455 9.37996025687308 9.38513439432144 2 1 0
1036 0 1 0 3.847381914369401 7.48846869852167 11.514733811169249 1 1 0
1114 0 1 0 11.737023576342962 -0.9049434659743532 8.314794709940056 1 -1 0
801 0 2 0 4.364936380303913 2.402302714373363 12.447382147340571 -1 -1 0
790 0 1 0 5.585176415035949 11.235369258572376 1.3770145206875477 -1 -1 0
1265 0 2 0 8.29001435515033 3.6712082589673747 7.745250297684917 1 2 0
1193 0 2 0 -2.4164150058079397 4.900588340825252 7.051571509993566 1 0 0
628 0 1 0 -5.437127354331286 17.013614916399405 8.503256931698903 3 1 0
18 0 2 0 8.750867548371595 7.216013576737016 2.354328593880071 0 -1 0
1310 0 2 0 8.049235996025018 4.2330800063104155 4.949959055190324 1 0 0
532 0 1 0 9.458382548032334 -3.3502160507527243 10.12877839949033 1 2 0
732 0 2 0 -0.6797435414213268 0.6753004206659037 3.30279986013978 0 0 0
122 0 2 0 4.527478271913343 16.33646655264669 14.158360115516276 0 0 0
1520 0 2 0 7.305083069651593 -2.7014221464994033 12.355878212703567 1 1 0
70 0 1 0 -0.7096482362381266 5.434485636561893 7.6316585234275784 -1 0 0
662 0 2 0 -2.33969603710818 14.49497535720458 9.959964240815914 -1 -1 0
13 0 1 0 7.104815463279542 13.610744379475081 0.6234756979587395 -1 -1 0
1071 0 2 0 2.6949761609209224 -1.139364804828439 10.308392750143812 1 0 0
2378 0 2 0 2.102204792708694 11.223227594887645 5.5824009540114385 1 -1 0
414 0 2 0 11.17227561712216 0.7425631398071326 13.302927696169725 0 0 0
518 0 2 0 -4.0152977306544635 14.526690078226421 8.402077495528735 0 -2 0
368 0 2 0 4.585501964166966 13.459537771262667 10.984089328697907 1 2 0
1108 0 1 0 0.9090347866182451 9.864946732062197 11.563691137563499 2 2 0
305 0 2 0 -2.4616692049679063 16.31850667448027 0.5779838302637448 0 -3 0
474 0 2 0 6.691162293595843 9.077850044484086 8.59801912801905 -1 0 0
1133 0 2 0 2.85689033481849 18.91449413179597 3.4278483655784546 1 1 0
29 0 2 0 4.108749832894706 13.803079310469816 13.768534515218512 0 0 0
24 0 2 0 0.571332657210351 13.655569264226132 9.295407354036437 0 -3 0
1236 0 2 0 10.195660235103338 4.80533323646766 5.761046681248633 1 -1 0
1360 0 1 0 -5.37141707954935 11.070200451830651 15.054087064072768 1 0 0
775 0 1 0 10.965399909336869 5.189239298400892 3.967146176507022 1 0 0
614 0 2 0 3.1068511375760406 0.863962625428415 2.3011783983949687 0 2 0
168 0 2 0 1.403629275847338 1.6513154527119642 4.840549101085729 2 1 0
885 0 2 0 7.210973196979968 9.865458892847437 6.258972350842719 -1 0 0
951 0 2 0 -1.2457544176227968 5.288357987070167 4.003847517695086 1 2 0
244 0 1 0 -3.217478817102428 8.729432581227782 5.987656393017687 1 0 0
216 0 2 0 3.09738932119946 2.0298161212288615 0.4630445437471653 0 0 0
424 0 1 0 2.821677304011644 11.468817790746666 12.776797168461133 -1 -2 0
172 0 1 0 5.862270214648343 7.432624945875957 5.851688817915876 0 -1 0
2415 0 2 0 1.2093873789052223 0.5158264148202827 9.96001189163611 2 1 0
61 0 1 0 13.49835352862513 0.6890570238138016 3.862021249149482 0 -1 0
562 0 1 0 7.679111213507907 2.6867672921117873 6.47621380799454 0 0 0
381 0 2 0 -2.4294446235621847 7.723905606785394 11.667587901274949 2 -2 0
750 0 2 0 3.261524121102806 -2.5617236872579863 8.293307365722775 0 1 0
694 0 1 0 1.7061894204429515 2.683777703089747 7.724701126054111 -2 2 0
528 0 2 0 -0.4848277876866658 0.1308799867328747 11.197747880573981 2 3 0
697 0 1 0 7.702823637752815 13.773613272020782 6.67516792219263 0 1 0
263 0 2 0 4.666119829712265 3.178729764279617 6.530877079388426 -1 -2 0
661 0 1 0 -3.014687736208229 15.055130203965438 9.550302490560066 -1 -1 0
1008 0 2 0 2.31880543407963 4.867671509295922 10.995246165954615 1 1 0
468 0 2 0 3.5533857009965266 9.813016804572886 6.296058582546973 2 2 0
2199 0 2 0 11.383049858768706 1.2218231467258278 -0.5058393348094825 0 0 1
802 0 1 0 -2.2339033034220295 7.895036619347889 14.784728767492462 0 0 0
1020 0 2 0 6.409460634611239 11.7764065622897 14.857769674945356 3 2 0
2474 0 2 0 0.7080934113170932 11.819545518300796 14.99416016180187 0 2 1
748 0 1 0 3.1416523733967963 -1.7803796126053937 7.692456588133865 0 1 0
91 0 1 0 3.7617156440098523 9.367171687355636 2.312222467464864 0 0 0
392 0 2 0 13.388646574094835 1.5184967751988783 12.381344294904197 0 0 0
1208 0 2 0 13.05202382591723 -2.4564047609900683 9.247743116288962 0 1 0
23 0 2 0 1.0152054375303408 13.96249268320745 7.826696109322441 0 -3 0
149 0 2 0 3.162529683042842 12.406761061375443 -0.28742040879498576 0 1 0
1294 0 1 0 6.948391417982087 -0.15070847953354294 3.7812246887606964 1 1 0
740 0 2 0 1.570959335460716 -2.9069240182900464 9.936481835733398 -1 1 0
585 0 2 0 5.342736808468506 16.59435312671062 12.011161916991622 -2 -1 0
232 0 1 0 3.7697953451944084 12.331339055495599 9.60195834114485 2 1 0
1172 0 2 0 6.106488878655985 -0.433626034272963 7.178866545315257 0 1 0
266 0 2 0 13.248838680087301 -1.0336332998323992 7.2991566034341115 0 -1 0
795 0 2 0 -0.5566819821610709 14.386041020232101 0.25276803223574795 1 1 0
777 0 2 0 11.912553668999525 5.185895240536058 3.77851181801035 1 0 0
1160 0 2 0 -5.003030560427129 16.180453146487856 11.630181095908867 1 0 0
640 0 1 0 -2.0444555360257666 14.357905871958618 3.008377610696659 0 0 0
783 0 2 0 3.1260393506969137 17.80978756308108 1.5003408275569012 1 1 0
1043 0 2 0 4.672854617113071 1.6485459566748721 8.75703161448559 2 3 0
1128 0 2 0 -4.933442529153868 10.347727819337566 7.419300446516738 0 2 0
56 0 2 0 5.137852330857859 11.39364417617488 3.9651587349654616 1 -2 0
636 0 2 0 10.700897119012376 5.665585845464138 -0.4880013727886449 0 -1 0
1286 0 2 0 9.82685969345244 0.1725668462051586 5.795026590455201 0 0 0
49 0 1 0 -0.9699247888055307 11.758688603327904 12.268127714605125 2 3 0
326 0 2 0 0.49916841265795736 14.519566682090126 11.482001869243263 1 0 0
323 0 2 0 0.49157979927784373 7.806078899705502 1.7484520665015997 -1 0 0
1078 0 1 0 13.252767881037565 2.771228707499111 5.811221897545649 -2 -1 0
545 0 2 0 3.8731282557179734 0.6487479896900064 4.568387505526839 0 2 0
45 0 2 0 -3.690190553012492 13.422567199052581 3.073088866646999 1 -2 0
936 0 2 0 0.33464237349645964 3.719770990033675 4.938594198407449 0 1 0
1040 0 2 0 1.3451307891081372 7.4762654010475815 13.2653225263685 2 -1 0
2 0 2 0 12.222543748810391 4.257461233536144 1.6475881999421507 -1 -2 0
2444 0 2 0 0.7780987646306003 15.52510695998755 14.251059077335135 -1 -1 0
769 0 1 0 8.218976302362321 9.618918112922511 11.73451867471101 -1 -2 0
1496 0 2 0 11.272558609482374 3.1097933170605945 3.871666699019621 0 0 0
1311 0 2 0 7.8519750819055565 5.339130247954554 3.8439565008439365 1 0 0
1117 0 1 0 8.38518275617953 12.406910236063194 10.529201450748937 1 -1 0
325 0 1 0 -0.4117024171004614 14.258209777636605 11.226645148307703 1 0 0
621 0 2 0 10.227040273725454 5.218641055614733 15.297465866362451 0 0 0
30 0 2 0 2.889703126232412 14.373564019206084 14.659259085523066 0 0 0
28 0 1 0 3.790345143897688 13.975446654589476 14.673361012301351 0 0 0
441 0 2 0 -0.17464044180108404 8.770014909246164 0.04885235108094044 0 -1 0
298 0 1 0 -0.10103970967100401 6.621482289292514 10.255513654134763 3 3 0
119 0 2 0 6.566534816509258 3.3132271034091776 13.801881966322233 -2 -4 0
429 0 2 0 9.386012573694517 7.800145944231742 14.153432911626915 0 -3 0
1110 0 2 0 1.2512825957890554 9.230639456071426 12.235184993467165 2 2 0
69 0 2 0 4.5201702084103195 14.6658599846258 7.839229220626358 -2 -1 0
574 0 1 0 -0.33486823264239296 11.71254753617126 3.6425015860840357 2 1 0
2337 0 2 0 -4.393359646363797 19.15545399099517 2.889211536587065 0 0 1
948 0 2 0 1.8473674934673248 16.073996864402066 11.978546514977372 0 0 0
968 0 2 0 4.953865591641119 5.5522954633498305 8.44885793893984 2 1 0
1169 0 2 0 8.643495228025259 12.78148495984825 0.7506898476575394 0 -1 0
155 0 2 0 0.8668571469284708 1.688886758521213 13.606857855704964 0 1 0
338 0 2 0 5.770674109422392 15.906772187957086 5.262207391578031 -1 -1 0
322 0 1 0 0.7385504079707647 6.937966655453514 2.0190022311022564 -1 0 0
1309 0 1 0 8.056548610934723 5.212323477366962 4.769470692914066 1 0 0
969 0 2 0 4.856561082507005 6.413724839868618 7.167506333553616 2 1 0
96 0 2 0 11.0141080977877 8.401889267811686 0.0013090026157016599 1 0 0
251 0 2 0 1.9887343418521704 6.312888635404112 3.5328883877263806 1 -1 0
1109 0 2 0 1.0692748483837666 9.584410338205725 10.711536834761977 2 2 0
2186 0 2 0 -0.47345200081693817 14.23521925976793 6.177494201693994 -1 0 1
258 0 2 0 -3.1455253266111205 13.108089221068035 14.806402477000212 1 1 0
946 0 1 0 2.038858119007753 15.210987470260616 11.520994582682889 0 0 0
1275 0 2 0 13.722960136432818 -1.5962142012845697 12.503620429360131 1 1 0
1207 0 1 0 13.6914688398803 -3.1710299859799633 9.135058306564197 0 1 0
128 0 2 0 -5.318097538282123 18.561676979590143 5.042112957686877 0 1 0
949 0 1 0 -1.5080279096587654 5.868185889762635 3.272272633721789 1 2 0
40 0 1 0 6.960777180444488 -0.8337945795129298 11.92357791684098 0 1 0
653 0 2 0 1.594560500696136 10.311142747203546 8.113314290165656 3 0 0
1089 0 2 0 7.291759904603648 13.333864104150788 13.294188372104243 -1 -2 0
556 0 1 0 -5.6677522248211725 15.31636717794915 14.802453091040126 0 0 0
1096 0 1 0 -5.309912815969049 18.102601786710242 1.7472459165140468 1 -1 0
1186 0 1 0 5.4558268302301896 12.268221803433663 7.239649900243071 -1 -1 0
2335 0 1 0 -3.880539231997725 19.139170033607865 3.74556389053351 0 0 1
693 0 2 0 10.391115564421472 -2.6396538594231 11.098748427506758 1 1 0
318 0 2 0 5.786713794155983 18.244498598599424 0.658800170814295 0 0 0
619 0 1 0 10.883894718188655 5.371899202774004 14.592801151118875 0 0 0
1288 0 1 0 -1.9331148888414118 4.891518521169538 12.778434162602991 1 -1 0
413 0 2 0 11.166049812482733 2.294230301824917 13.04646530122 0 0 1
1177 0 1 0 9.09923602895754 10.40760439227181 8.650185643560853 1 1 0
481 0 1 0 3.1693423619115166 13.06287630430379 2.687900004188297 3 1 0
1158 0 2 0 7.73443723590696 6.485778180043149 13.813190840774638 0 0 0