LAMMPS (23 Jun 2022)
include procedure.lmp
echo both
include		in.partitions
variable        pid world 0
include		in.temp
variable	temperature equal 245
variable        tempDamp equal 0.100 # this is 0.1 ps
include		in.pressure
variable        pressure equal 6079.5
variable        pressureDamp equal 1.0 #this is 1ps

variable	barostat string	   tri
variable	direction string   z
variable	direction_x_bool equal 0
variable	direction_y_bool equal 0
variable	direction_z_bool equal 1

include		in.seed
variable        seed world 745823

units           metal
atom_style	full
box tilt large
read_restart 	restart.lmp.${pid}
read_restart 	restart.lmp.0
Reading restart file ...
  restart file = 23 Jun 2022, LAMMPS = 23 Jun 2022
  restoring atom style full from restart
  triclinic box = (0 0 -0.95114106) to (30.923 21.319344 31.673736) with tilt (-9.137482 1.1392288 -10.722036)
WARNING: Triclinic box skew is large (../domain.cpp:224)
  2 by 1 by 2 MPI processor grid
Summary of lammps deepmd module ...
  >>> Info of deepmd-kit:
  installed to:       /u/sigbjobo/software/DEEPMD_FROM_SOURCE/deepmd-kit/install
  source:             v2.1.3
  source branch:       master
  source commit:      5a32c49
  source commit at:   2022-07-01 09:52:58 +0800
  surpport model ver.:1.1 
  build float prec:   double
  build with tf inc:  /u/sigbjobo/software/DEEPMD_FROM_SOURCE/tensorflow/install/include;/u/sigbjobo/software/DEEPMD_FROM_SOURCE/tensorflow/install/include
  build with tf lib:  /u/sigbjobo/software/DEEPMD_FROM_SOURCE/tensorflow/install/lib/libtensorflow_cc.so;/u/sigbjobo/software/DEEPMD_FROM_SOURCE/tensorflow/install/lib/libtensorflow_framework.so
  set tf intra_op_parallelism_threads: 0
  set tf inter_op_parallelism_threads: 0
  >>> Info of lammps module:
  use deepmd-kit at:  /u/sigbjobo/software/DEEPMD_FROM_SOURCE/deepmd-kit/install
  source:             v2.1.3
  source branch:      master
  source commit:      5a32c49
  source commit at:   2022-07-01 09:52:58 +0800
  build float prec:   double
  build with tf inc:  /u/sigbjobo/software/DEEPMD_FROM_SOURCE/tensorflow/install/include;/u/sigbjobo/software/DEEPMD_FROM_SOURCE/tensorflow/install/include
  build with tf lib:  /u/sigbjobo/software/DEEPMD_FROM_SOURCE/tensorflow/install/lib/libtensorflow_cc.so;/u/sigbjobo/software/DEEPMD_FROM_SOURCE/tensorflow/install/lib/libtensorflow_framework.so
  restoring pair style deepmd from restart
  2592 atoms
Finding 1-2 1-3 1-4 neighbors ...
  special bond factors lj:    0        0        0       
  special bond factors coul:  0        0        0       
     0 = max # of 1-2 neighbors
     0 = max # of 1-3 neighbors
     0 = max # of 1-4 neighbors
     1 = max # of special neighbors
  special bonds CPU = 0.000 seconds
  read_restart CPU = 0.054 seconds
include 	in.setup
variable	out_freq equal 2000
variable	out_freq2 equal 2000

timestep        0.0005

neigh_modify    delay 7 every 1

include         in.deepmd
# This is deepMD model

# create groups ###
#group ox type 2
#group hy type 1

mass 2 15.999
mass 1 1.008

pair_style      deepmd ../graph.pb
pair_coeff      * *

bond_style      none
angle_style     none
dihedral_style  none
improper_style  none
neigh_modify exclude none


neighbor        2.0 bin
neigh_modify    every 50 delay 0 check no

thermo          ${out_freq}
thermo          2000
thermo_style 	custom step temp pe etotal epair emol press lx ly lz vol pxx pyy pzz pxy pxz pyz

restart 	${out_freq} restart.lmp.${pid} restart2.lmp.${pid}
restart 	2000 restart.lmp.${pid} restart2.lmp.${pid}
restart 	2000 restart.lmp.0 restart2.lmp.${pid}
restart 	2000 restart.lmp.0 restart2.lmp.0


timer           timeout 23:50:00 every 1000
New timer settings: style=normal  mode=nosync  timeout=23:50:00


# Set number of time steps
variable 	nsteps_wall		equal	 6000000
variable 	nsteps_enhanced_coex    equal	60000000

variable     nsteps_enhanced_coex_upto equal (${nsteps_wall}+${nsteps_enhanced_coex})
variable     nsteps_enhanced_coex_upto equal (6000000+${nsteps_enhanced_coex})
variable     nsteps_enhanced_coex_upto equal (6000000+60000000)


# Set temperature for first step
if "$(step) < 1  " then    "velocity 	all create ${temperature} ${seed} dist gaussian"


# Always run thermo and barostat


######################################
# Run simulation with wall potential #
######################################
if " $(step) < ${nsteps_wall} " then    "fix             3 all plumed plumedfile plumed.equil.dat outfile plumed.equil.out"   "fix             1 all nph ${direction} ${pressure} ${pressure} ${pressureDamp}"   "fix             2 all temp/csvr ${temperature} ${temperature} ${tempDamp} ${seed}"   "run             ${nsteps_wall} upto"
if " $(step) == ${nsteps_wall} " then    "unfix 3"   "unfix 1"   "unfix 2"


############################
# Run enhanced coesistence #
############################
if "$(step) == ${nsteps_wall}" then    "fix             3 all plumed plumedfile plumed.start.dat outfile plumed.out" else    "fix             3 all plumed plumedfile plumed.dat outfile plumed.out"
fix             3 all plumed plumedfile plumed.dat outfile plumed.out

if "$(step) < ${nsteps_enhanced_coex_upto} && $(step) >= ${nsteps_wall} " then    "include         in.dump"    "fix             1 all nph ${direction} ${pressure} ${pressure} ${pressureDamp}"   "fix             2 all temp/csvr ${temperature} ${temperature} ${tempDamp} ${seed}"   "run             ${nsteps_enhanced_coex_upto} upto"    "unfix 3"   "unfix 1"   "unfix 2"
include         in.dump
dump            myDump all atom ${out_freq2} dump.water.${pid}
dump            myDump all atom 2000 dump.water.${pid}
dump            myDump all atom 2000 dump.water.0
dump            myDump2 all dcd ${out_freq2} dump.${pid}.dcd
dump            myDump2 all dcd 2000 dump.${pid}.dcd
dump            myDump2 all dcd 2000 dump.0.dcd
dump_modify     myDump append yes
dump_modify     myDump2 append yes

fix             1 all nph ${direction} ${pressure} ${pressure} ${pressureDamp}
fix             1 all nph z ${pressure} ${pressure} ${pressureDamp}
fix             1 all nph z 6079.5 ${pressure} ${pressureDamp}
fix             1 all nph z 6079.5 6079.5 ${pressureDamp}
fix             1 all nph z 6079.5 6079.5 1
fix             2 all temp/csvr ${temperature} ${temperature} ${tempDamp} ${seed}
fix             2 all temp/csvr 245 ${temperature} ${tempDamp} ${seed}
fix             2 all temp/csvr 245 245 ${tempDamp} ${seed}
fix             2 all temp/csvr 245 245 0.1 ${seed}
fix             2 all temp/csvr 245 245 0.1 745823
run             ${nsteps_enhanced_coex_upto} upto
run             66000000 upto

CITE-CITE-CITE-CITE-CITE-CITE-CITE-CITE-CITE-CITE-CITE-CITE-CITE

Your simulation uses code contributions which should be cited:

- USER-DEEPMD package:

@article{Wang_ComputPhysCommun_2018_v228_p178,
  author = {Wang, Han and Zhang, Linfeng and Han, Jiequn and E, Weinan},
  doi = {10.1016/j.cpc.2018.03.016},
  url = {https://doi.org/10.1016/j.cpc.2018.03.016},
  year = 2018,
  month = {jul},
  publisher = {Elsevier {BV}},
  volume = 228,
  journal = {Comput. Phys. Commun.},
  title = {{DeePMD-kit: A deep learning package for many-body potential energy representation and molecular dynamics}},
  pages = {178--184}
}

CITE-CITE-CITE-CITE-CITE-CITE-CITE-CITE-CITE-CITE-CITE-CITE-CITE

Generated 0 of 1 mixed pair_coeff terms from geometric mixing rule
Neighbor list info ...
  update every 50 steps, delay 0 steps, check no
  max neighbors/atom: 2000, page size: 100000
  master list distance cutoff = 8
  ghost atom cutoff = 8
  binsize = 4, bins = 11 9 9
  1 neighbor lists, perpetual/occasional/extra = 1 0 0
  (1) pair deepmd, perpetual
      attributes: full, newton on
      pair build: full/bin
      stencil: full/bin/3d
      bin: standard
Per MPI rank memory allocation (min/avg/max) = 6.238 | 6.239 | 6.239 Mbytes
   Step          Temp          PotEng         TotEng         E_pair         E_mol          Press            Lx             Ly             Lz           Volume          Pxx            Pyy            Pzz            Pxy            Pxz            Pyz      
  40709000   249.49009     -417.29005     -333.73257     -417.29005      0              4967.4227      30.923         21.319344      32.624877      21508.214      3835.9572      4326.1099      6740.2011     -1096.896       2251.0901     -777.85246    
  40710000   248.73158     -420.00315     -336.6997      -420.00647      0              6858.4308      30.923         21.319344      32.676083      21541.971      5441.8426      7230.1181      7903.3318      536.21787     -334.77519     -402.1668     
  40712000   248.08079     -419.20641     -336.12092     -419.20024      0              5819.5189      30.923         21.319344      32.831508      21644.437      5546.8962      6116.9772      5794.6832      701.75266     -565.24558      1204.1648    
  40714000   246.53369     -419.30113     -336.73378     -419.29913      0              6183.1712      30.923         21.319344      32.598913      21491.097      6411.9173      4960.7652      7176.8312      1351.3577     -1033.6262     -101.22104    
  40716000   250.30202     -419.00267     -335.17326     -418.99973      0              6849.9859      30.923         21.319344      32.334761      21316.952      7327.8441      7013.1569      6208.9568     -17.657714     -609.60169     -270.43185    
  40718000   251.24739     -417.87915     -333.73312     -417.86857      0              8369.9528      30.923         21.319344      32.655885      21528.656      9906.4518      7905.5412      7297.8653     -958.67329      675.41947      299.36912    
  40720000   243.87885     -416.17532     -334.49711     -416.16502      0              3958.5637      30.923         21.319344      32.647125      21522.881      2127.7162      5845.9466      3902.0284     -1344.2234      1385.0891     -507.44247    
  40722000   249.66552     -417.6416      -334.02537     -417.63226      0              6036.1375      30.923         21.319344      32.682564      21546.244      7361.2233      6444.2208      4302.9685     -1138.6913     -851.17975     -305.09013    
  40724000   250.86395     -420.36223     -336.34462     -420.36431      0              4906.6636      30.923         21.319344      32.610465      21498.712      5409.3494      4618.078       4692.5634     -258.90162      1071.5069      1386.4361    
  40726000   246.33184     -420.2652      -337.76546     -420.26774      0              5867.2452      30.923         21.319344      32.608231      21497.24       6945.7035      5019.0225      5637.0098      202.61053      640.56521     -534.24347    
  40728000   241.91167     -418.21735     -337.19798     -418.20719      0              6156.8685      30.923         21.319344      32.626471      21509.264      5552.6404      6602.061       6315.9041     -782.42472      674.43775     -897.79368    
  40730000   240.10067     -420.82997     -340.41713     -420.83099      0              3821.6105      30.923         21.319344      32.593784      21487.715      5471.1847      2945.9429      3047.7038      74.925735     -456.6328       2831.4355    
  40732000   243.32923     -422.21946     -340.72533     -422.23562      0              6751.2052      30.923         21.319344      32.504329      21428.741      6961.4449      5772.1612      7520.0094      182.74096     -991.65389      598.67979    
  40734000   255.23079     -418.89001     -333.40989     -418.88512      0              7910.7314      30.923         21.319344      32.467772      21404.641      8914.4964      8065.4053      6752.2923      1965.1458     -966.64252      718.18812    
  40736000   250.55378     -420.21315     -336.29942     -420.19166      0              6784.9051      30.923         21.319344      32.570133      21472.123      7515.2238      5383.4515      7456.04       -1033.7679     -623.6882       284.21617    
  40738000   241.63706     -420.25156     -339.32415     -420.24822      0              5377.781       30.923         21.319344      32.57883       21477.857      6790.8022      4668.0084      4674.5324      1248.5881     -682.20995      673.80013    
  40740000   252.70331     -419.27575     -334.64212     -419.28019      0              5886.5641      30.923         21.319344      32.572723      21473.83       4252.7293      5628.8094      7778.1535     -321.0502      -1056.8085      435.68049    
  40742000   248.34247     -419.31112     -336.13799     -419.30537      0              7113.6464      30.923         21.319344      32.538639      21451.36       5429.0438      6262.5096      9649.3857      662.21361     -351.38629     -672.83488    
  40744000   247.24683     -423.38541     -340.57922     -423.39769      0              7179.4166      30.923         21.319344      32.527863      21444.256      6696.1377      7161.8116      7680.3006     -980.50763     -1071.6119     -1443.0991    
  40746000   246.34262     -422.78777     -340.28442     -422.79622      0              3686.4387      30.923         21.319344      32.585481      21482.242      4402.8182      1608.9322      5047.5657      1199.5528     -121.11962     -79.07071     
  40748000   237.18633     -418.44604     -339.00925     -418.4425       0              4918.8924      30.923         21.319344      32.820732      21637.332      6362.4944      4327.6391      4066.5436      1274.4969      1390.6904     -139.70479    
  40750000   240.07064     -421.22983     -340.82704     -421.22578      0              6245.2722      30.923         21.319344      32.677718      21543.049      5052.2598      6570.611       7112.9458     -518.14039      1068.1528      1836.9196    
  40752000   243.83944     -419.91256     -338.24755     -419.91427      0              4995.0963      30.923         21.319344      32.62891       21510.873      4206.1168      5452.2521      5326.9199      477.7017      -388.83213      242.68265    
  40754000   244.3067      -421.30081     -339.47931     -421.31438      0              6112.688       30.923         21.319344      32.526649      21443.456      6326.5134      5517.1184      6494.4323     -230.55546     -653.46892      73.863133    
  40756000   247.68922     -419.75352     -336.79917     -419.75927      0              7269.5067      30.923         21.319344      32.457264      21397.713      7469.717       6353.6737      7985.1295      967.44934     -470.15234     -1776.7037    
  40758000   251.01132     -418.76244     -334.69547     -418.77127      0              6431.8177      30.923         21.319344      32.599048      21491.185      4902.2687      7823.5861      6569.5984      1088.3421     -197.67486      35.490455    
  40760000   246.68162     -416.43935     -333.82246     -416.43         0              6323.8841      30.923         21.319344      32.607417      21496.703      6148.3605      6821.6844      6001.6073     -270.61948     -750.02059      652.47867    
  40762000   243.34996     -419.14885     -337.64778     -419.14459      0              6834.8594      30.923         21.319344      32.545824      21456.097      7671.5984      5422.5553      7410.4245     -423.24401     -73.526376     -895.50029    
  40764000   250.01086     -420.09502     -336.36313     -420.108        0              6169.5609      30.923         21.319344      32.647947      21523.423      4562.3579      5259.9387      8686.386       999.00404     -1168.3464     -359.16615    
  40766000   242.63681     -421.32745     -340.06522     -421.33359      0              7579.8908      30.923         21.319344      32.599199      21491.285      6058.4079      7221.9356      9459.3289      93.026567      1301.9961      507.87647    
  40768000   247.83667     -420.82255     -337.81881     -420.81523      0              5991.8408      30.923         21.319344      32.685892      21548.438      7292.8218      5316.0569      5366.6437     -1501.3482     -1930.927      -200.46242    
  40770000   242.04801     -419.545       -338.47997     -419.54192      0              4366.2032      30.923         21.319344      32.833934      21646.036      3859.6234      4167.4151      5071.571       591.10248     -1143.0259      1622.408     
  40772000   248.40714     -417.19013     -333.99534     -417.17617      0              5470.5617      30.923         21.319344      32.616019      21502.374      4053.2854      5623.899       6734.5006      1233.0953      1673.0702     -1895.3864    
  40774000   236.55319     -421.00156     -341.77682     -421.00823      0              4847.4942      30.923         21.319344      32.627897      21510.205      3421.0115      5497.6917      5623.7794     -182.73275     -792.94195     -1546.0908    
  40776000   247.32751     -420.36107     -337.52787     -420.37025      0              4033.8229      30.923         21.319344      32.549745      21458.682      3351.9379      3659.6054      5089.9252      536.1897       895.28085      62.681136    
  40778000   242.18179     -421.7426      -340.63276     -421.75315      0              4693.5282      30.923         21.319344      32.517121      21437.174      3123.7073      6094.178       4862.6992      2013.4044      698.82927      1741.3345    
  40780000   244.83808     -422.44422     -340.44476     -422.44867      0              7345.5068      30.923         21.319344      32.50456       21428.894      6991.2143      7223.4386      7821.8675     -128.43195     -540.80796     -1046.2305    
  40782000   242.4252      -420.7253      -339.53394     -420.73972      0              6759.2268      30.923         21.319344      32.574363      21474.912      5440.3093      8673.228       6164.1431      557.01841      948.24815     -18.560731    
  40784000   245.99999     -419.36331     -336.97471     -419.36033      0              6752.2057      30.923         21.319344      32.457757      21398.038      6311.7827      5181.6         8763.2345     -6.7204538      903.5758       126.5959     
  40786000   243.82173     -423.82431     -342.16523     -423.82177      0              5382.0397      30.923         21.319344      32.63646       21515.85       2704.2228      6432.0975      7009.7989      914.45701     -4.1846225      633.50014    
  40788000   245.80502     -423.26983     -340.94652     -423.26488      0              5305.9301      30.923         21.319344      32.640128      21518.268      5447.715       4400.4257      6069.6497     -858.46377      514.05858     -657.08399    
  40790000   240.23643     -419.93583     -339.47751     -419.94103      0              4948.7592      30.923         21.319344      32.466563      21403.844      5107.314       4991.1899      4747.7738      705.31212      570.42725     -166.07928    
  40792000   244.82601     -419.31906     -337.32364     -419.33091      0              7109.8545      30.923         21.319344      32.649866      21524.688      5461.0749      7955.4086      7913.08       -817.10675      1248.2028     -465.54156    
  40794000   245.81434     -420.08032     -337.75389     -420.08467      0              5871.3191      30.923         21.319344      32.42831       21378.625      7357.0684      5515.0961      4741.793       612.13393     -1824.583      -54.167877    
  40796000   244.57542     -420.32546     -338.41396     -420.32323      0              8036.4752      30.923         21.319344      32.398575      21359.022      5541.3592      9300.4672      9267.5992     -1293.1956      1462.6026     -1542.1969    
  40798000   234.84371     -421.60491     -342.95269     -421.61625      0              7140.2022      30.923         21.319344      32.388032      21352.071      5045.9137      8113.3539      8261.3389      515.09912     -406.32519      432.62748    
  40800000   242.61003     -420.0344      -338.78114     -420.03191      0              6294.9515      30.923         21.319344      32.525555      21442.735      7773.9542      4433.7484      6677.152       1394.1504     -1852.6911     -765.29954    
  40802000   239.3731      -417.27438     -337.10521     -417.26402      0              5141.121       30.923         21.319344      32.752954      21592.649      6139.6414      6026.6931      3257.0285      361.99878     -2139.1851     -671.68585    
  40804000   243.7895      -421.79243     -340.14415     -421.80178      0              6828.5272      30.923         21.319344      32.578295      21477.504      6874.1341      4065.8073      9545.6402      554.5731       46.308601      345.16559    
  40806000   240.25801     -421.24825     -340.78271     -421.25317      0              7433.4515      30.923         21.319344      32.612831      21500.272      7913.3022      7593.9546      6793.0978      890.091       -531.83717     -800.99885    
  40808000   243.29091     -421.05004     -339.56875     -421.04987      0              5559.2066      30.923         21.319344      32.71341       21566.58       8126.2542      5173.1995      3378.166      -1146.0769     -1542.5511     -378.19335    
  40810000   246.67718     -421.39974     -338.78434     -421.40295      0              6596.4417      30.923         21.319344      32.479924      21412.652      5747.6053      8160.8593      5880.8604      1810.4507     -257.18024     -664.08321    
  40812000   240.3603      -419.87997     -339.38017     -419.89091      0              6998.9715      30.923         21.319344      32.654455      21527.713      6556.5004      6664.3831      7776.0311      1371.3051     -1671.1576      1182.1656    
  40814000   248.57061     -422.00672     -338.75718     -422.01065      0              6228.2306      30.923         21.319344      32.516574      21436.814      7641.9099      5515.7142      5527.0676      554.07331     -559.99984      5.1120767    
  40816000   241.68852     -419.12728     -338.18265     -419.12864      0              4832.8647      30.923         21.319344      32.53263       21447.399      4770.1761      6412.2822      3316.1357      1065.7194     -1600.5682     -2722.7812    
  40818000   249.18889     -419.6058      -336.14919     -419.61682      0              7297.7691      30.923         21.319344      32.459672      21399.301      3056.5489      10406.682      8430.0766     -1639.8348      1501.6187     -1173.0269    
  40820000   242.61499     -418.71515     -337.46023     -418.72881      0              5132.5867      30.923         21.319344      32.576541      21476.348      4241.0587      5482.3025      5674.3988     -119.86746      320.02106      2346.4366    
  40822000   243.50691     -420.25363     -338.69999     -420.27585      0              6685.1927      30.923         21.319344      32.565186      21468.862      5602.2877      8511.1488      5942.1417     -278.12406     -476.54574      291.76396    
  40824000   245.88148     -418.97345     -336.62454     -418.98253      0              6613.2283      30.923         21.319344      32.762092      21598.673      5622.6942      6273.9519      7943.0387      919.45901      910.70142      589.91964    
  40826000   239.80979     -420.01672     -339.7013      -420.01964      0              6709.4677      30.923         21.319344      32.510713      21432.95       5725.0506      8857.5203      5545.8322      1564.5862     -460.20328     -361.60896    
  40828000   247.49921     -418.6909      -335.80019     -418.70959      0              7468.4942      30.923         21.319344      32.507938      21431.12       6661.3865      6223.8932      9520.2029      710.87765     -1029.7227      204.1496     
  40830000   242.34483     -418.89499     -337.73055     -418.89894      0              5593.6041      30.923         21.319344      32.37767       21345.241      7989.1356      5940.3782      2851.2986     -472.16938      184.23779     -97.599811    
  40832000   244.91111     -421.73809     -339.71417     -421.74167      0              5179.7549      30.923         21.319344      32.633408      21513.838      5066.672       4004.2208      6468.3718      1486.694      -340.75069      577.88719    
  40834000   244.66404     -415.65824     -333.71706     -415.67083      0              6588.4938      30.923         21.319344      32.506141      21429.936      5730.3209      6543.2053      7491.9551     -1499.1708      1069.3189     -949.14921    
  40836000   243.04297     -419.68164     -338.28338     -419.68428      0              5185.9657      30.923         21.319344      32.640346      21518.412      5932.4989      5423.1502      4202.2481      53.663856     -352.65832     -680.23164    
  40838000   246.20237     -419.2366      -336.78021     -419.22681      0              6090.682       30.923         21.319344      32.689578      21550.868      5855.785       6293.9424      6122.3185     -2160.2078      39.830931     -867.47521    
  40840000   232.5137      -418.38979     -340.51792     -418.38495      0              6166.376       30.923         21.319344      32.758828      21596.522      4574.8114      6056.3881      7867.9284     -1029.6963      1796.5357     -178.90554    
  40842000   249.69475     -418.64326     -335.01723     -418.63553      0              5566.1393      30.923         21.319344      32.764521      21600.275      5849.8364      6079.3068      4769.2748     -603.11422      1608.9581      668.12108    
  40844000   240.52362     -419.20858     -338.65408     -419.2043       0              6337.0909      30.923         21.319344      32.865944      21667.139      5857.1418      5941.6193      7212.5117      1076.8302      3.1661108      3214.4751    
  40846000   248.82383     -419.38391     -336.04956     -419.36777      0              4676.2699      30.923         21.319344      32.762329      21598.83       3963.9258      4317.4085      5747.4754      94.359419      591.27403     -1088.4612    
  40848000   237.62736     -420.955       -341.37049     -420.94351      0              5157.3832      30.923         21.319344      32.582419      21480.223      4253.1041      7120.5789      4098.4666     -749.72935     -514.43058     -508.75859    
  40850000   242.75415     -418.53341     -337.23188     -418.52895      0              4732.8935      30.923         21.319344      32.534492      21448.626      2744.6472      6145.2286      5308.8048      1814.859       1026.4416      416.78384    
  40852000   245.52249     -418.75199     -336.52331     -418.74276      0              7367.1326      30.923         21.319344      32.439325      21385.887      7121.2119      7137.7796      7842.4062     -174.02085      5.9745352      483.52928    
  40854000   245.55414     -419.00831     -336.76903     -419.00469      0              6237.6731      30.923         21.319344      32.575         21475.331      5403.3489      7245.7013      6063.9689     -1176.5241      816.87832     -138.23536    
  40856000   237.9301      -417.58517     -337.89927     -417.57898      0              6504.9645      30.923         21.319344      32.438687      21385.466      6832.9258      8000.6232      4681.3446      999.2316      -412.54315      1826.3298    
  40858000   250.52156     -418.00968     -334.10674     -418.01377      0              4957.5601      30.923         21.319344      32.527294      21443.881      4263.2014      7071.0655      3538.4135     -1480.5209      1323.71       -311.21206    
  40860000   246.66978     -419.93617     -337.32324     -419.94173      0              6560.4021      30.923         21.319344      32.463258      21401.665      5024.4883      8574.461       6082.2569      793.83144      1302.4493      336.1739     
  40862000   239.41192     -417.69042     -337.50825     -417.7          0              5572.453       30.923         21.319344      32.494501      21422.262      6615.1293      4551.8014      5550.4282     -205.01579      1181.6721     -576.73328    
  40864000   245.20666     -418.66982     -336.54691     -418.67919      0              4523.3014      30.923         21.319344      32.441371      21387.236      3345.5185      5968.9717      4255.4141      1596.0286      2522.4234      843.85735    
  40866000   241.962       -418.79619     -337.75997     -418.80462      0              7687.3794      30.923         21.319344      32.474683      21409.197      6517.5429      8513.3194      8031.276      -556.16235      245.79631     -577.50593    
  40868000   246.63477     -418.28749     -335.68629     -418.30967      0              4851.161       30.923         21.319344      32.531154      21446.426      4910.8998      4922.9035      4719.6796      801.06483      1224.008      -554.12098    
  40870000   239.47244     -418.14301     -337.94057     -418.1548       0              5911.3708      30.923         21.319344      32.41273       21368.354      5592.5266      3778.772       8362.8139      1116.8445      791.41694      1791.4227    
  40872000   244.15707     -419.28224     -337.51085     -419.28085      0              7310.3593      30.923         21.319344      32.589179      21484.679      5748.9577      8899.5426      7282.5776     -171.01998     -739.85607     -275.7598     
  40874000   243.1058      -416.06865     -334.64935     -416.06339      0              5313.8264      30.923         21.319344      32.53318       21447.762      5115.7502      5567.5809      5258.1482      766.6779      -2595.8855     -592.86008    
  40876000   236.96413     -419.52758     -340.16521     -419.53364      0              6464.1566      30.923         21.319344      32.575561      21475.702      8156.536       6664.3442      4571.5896      94.905871     -441.79483     -990.43856    
  40878000   238.15832     -415.59368     -335.83135     -415.59959      0              6177.1019      30.923         21.319344      32.484158      21415.443      5437.0728      6564.4097      6529.8232      802.77039     -2423.924       855.68696    
  40880000   240.64616     -419.80484     -339.20931     -419.81742      0              4178.9214      30.923         21.319344      32.553493      21461.153      2269.6726      5447.5801      4819.5114     -20.774187     -45.594192      866.71264    
  40882000   247.34995     -418.85565     -336.01493     -418.86142      0              7811.4622      30.923         21.319344      32.653996      21527.41       8973.6553      5988.4561      8472.2753     -963.45958     -186.75724     -900.25035    
  40884000   241.21965     -418.14043     -337.35282     -418.15016      0              5619.9924      30.923         21.319344      32.561321      21466.313      6317.4656      6774.8016      3767.71        1306.5875      2660.6977      499.6458     
  40886000   242.94418     -419.98503     -338.61986     -419.98507      0              4229.4149      30.923         21.319344      32.506493      21430.168      4660.7872      4150.4274      3877.0299     -273.64043     -6.5081754      1585.2869    
  40888000   243.79081     -420.37619     -338.72747     -420.36807      0              5828.2056      30.923         21.319344      32.444027      21388.987      5509.6578      6106.6158      5868.3431      444.58161      302.07977      353.15113    
  40890000   238.59393     -419.00932     -339.1011      -419.01193      0              4891.9544      30.923         21.319344      32.365264      21337.062      5701.3624      5970.0252      3004.4757     -1027.9497     -2029.7913      564.54101    
  40892000   246.58816     -418.93069     -336.3451      -418.94341      0              7837.2231      30.923         21.319344      32.398118      21358.721      6356.8222      8266.3345      8888.5125      14.613434     -1221.6947     -678.01381    
  40894000   237.04977     -417.92215     -338.5311      -417.93825      0              5668.2599      30.923         21.319344      32.310757      21301.128      7117.2617      4292.4216      5595.0962      932.89779      602.81223     -1306.3098    
  40896000   239.88713     -418.154       -337.81268     -418.17308      0              5405.4151      30.923         21.319344      32.338361      21319.325      5401.2885      5244.1999      5570.7569      624.26958     -876.7588       1036.4926    
  40898000   237.67685     -419.79787     -340.1968      -419.80145      0              4768.4365      30.923         21.319344      32.605496      21495.436      7014.1761      3351.6321      3939.5013     -325.06817     -526.8505       466.08729    
  40900000   250.42916     -418.92644     -335.05445     -418.91861      0              5831.4748      30.923         21.319344      32.659263      21530.883      6112.9877      5784.5307      5596.9059      1774.1779      389.17847      1082.735     
  40902000   243.28958     -417.71792     -336.23707     -417.72972      0              5789.2404      30.923         21.319344      32.382479      21348.41       3877.8166      6884.5643      6605.3402      541.27187      340.6951       915.5323     
  40904000   244.58945     -418.93209     -337.0159      -418.93884      0              5933.9049      30.923         21.319344      32.461613      21400.58       4790.2202      7015.2194      5996.2752      341.00871     -804.76303      234.38466    
  40906000   246.38296     -419.45398     -336.93711     -419.45223      0              7001.0625      30.923         21.319344      32.361354      21334.484      7335.7614      7548.0078      6119.4184     -801.4638      -3299.6452      658.36057    
  40908000   246.74032     -418.6341      -335.99755     -418.64164      0              8008.592       30.923         21.319344      32.342279      21321.908      8333.6891      8633.6471      7058.4397      512.7516       1776.1459     -1573.1496    
  40910000   251.69429     -420.83121     -336.53551     -420.83045      0              6230.3731      30.923         21.319344      32.276564      21278.585      6711.5388      5854.1821      6125.3985     -962.5511      -1495.9633     -70.403971    
  40912000   241.3259      -422.77895     -341.95576     -422.79259      0              7282.3094      30.923         21.319344      32.46767       21404.573      7141.4477      7264.957       7440.5236     -243.10995      1775.4665      1444.1181    
  40914000   243.67978     -421.30648     -339.69494     -421.30253      0              6631.7789      30.923         21.319344      32.40071       21360.429      6779.8868      7026.6998      6088.7499      444.5029       268.75981      2043.1731    
  40916000   244.27851     -418.39737     -336.58531     -418.39204      0              6094.7421      30.923         21.319344      32.363057      21335.606      5948.7125      6460.5303      5874.9835     -294.85377     -844.13716      864.37692    
  40918000   247.76349     -421.32046     -338.34124     -421.32715      0              6605.6483      30.923         21.319344      32.462646      21401.262      7218.6853      5902.2704      6695.9891      68.93304       919.697       -1222.8322    
  40920000   246.9095      -420.93844     -338.24523     -420.9512       0              3687.3398      30.923         21.319344      32.621349      21505.888      3217.407       4265.127       3579.4855      398.77264     -280.53841      1175.0832    
  40922000   244.51932     -418.52211     -336.6294      -418.52048      0              5935.1417      30.923         21.319344      32.583963      21481.24       1585.966       7527.4704      8691.9886      423.57155      1324.8369     -322.31723    
  40924000   237.01183     -421.57307     -342.19471     -421.57646      0              4821.7093      30.923         21.319344      32.532524      21447.329      4414.4446      3599.8918      6450.7915      1261.0821     -778.48251     -508.89122    
  40926000   248.4311      -419.86553     -336.66271     -419.86308      0              6689.9757      30.923         21.319344      32.668008      21536.648      6263.1693      6439.9158      7366.8419      523.50169      32.378291      613.33875    
  40928000   247.24578     -421.15033     -338.3445      -421.15882      0              5927.2909      30.923         21.319344      32.561626      21466.515      5110.5513      7084.1431      5587.1783      1061.6317      1075.7953      1056.2215    
  40930000   240.61966     -418.54342     -337.95676     -418.54452      0              5871.5565      30.923         21.319344      32.578112      21477.383      6693.2643      5350.8525      5570.5528      623.69292      584.02493      202.98282    
  40932000   252.96459     -421.67777     -336.95663     -421.6913       0              6992.6582      30.923         21.319344      32.472854      21407.991      6629.2118      6519.7606      7829.0022      141.16407      1503.3508      729.58473    
  40934000   249.07525     -420.24293     -336.82438     -420.25297      0              4664.1665      30.923         21.319344      32.486461      21416.962      3525.4896      6265.8061      4201.2038     -383.53373      2198.9577     -72.798486    
  40936000   242.75578     -417.18534     -335.88326     -417.16542      0              5946.8141      30.923         21.319344      32.551643      21459.933      4498.4551      5392.6882      7949.2989      2304.9006      836.1431       1396.0767    
  40938000   252.30639     -420.77533     -336.27463     -420.78555      0              2128.756       30.923         21.319344      32.525889      21442.955      1822.7358      1997.5725      2565.9597      403.29129      1276.7312      583.47466    
  40940000   249.29898     -418.32148     -334.828       -418.32077      0              7248.26        30.923         21.319344      32.591017      21485.891      8943.6478      5384.2904      7416.8417     -800.8527       1698.471      -1082.8401    
  40942000   251.123       -421.27604     -337.17168     -421.27906      0              5595.6306      30.923         21.319344      32.701436      21558.685      4392.0296      6256.3603      6138.5017      837.81953      319.56391      903.95914    
  40944000   240.25692     -421.3885      -340.92333     -421.39938      0              6857.3784      30.923         21.319344      32.752102      21592.088      6706.233       7332.9167      6532.9857     -1221.5309      592.16401     -1905.3359    
  40946000   238.34635     -420.12861     -340.30331     -420.12635      0              2897.5976      30.923         21.319344      32.803656      21626.075      3357.0238      4393.1134      942.65547      1197.8149      410.32661     -1008.1615    
  40948000   243.79975     -421.47234     -339.82062     -421.47953      0              6856.508       30.923         21.319344      32.602136      21493.221      6565.9404      6841.0519      7162.5316      34.715691      411.92996     -250.73664    
  40950000   250.88089     -421.44483     -337.42154     -421.45294      0              4247.2362      30.923         21.319344      32.709896      21564.263      3354.7615      3576.9692      5809.9779      939.07924      29.079245      1291.1419    
  40952000   249.37933     -419.14742     -335.62703     -419.14834      0              5951.5999      30.923         21.319344      32.639897      21518.115      5476.2398      6091.2471      6287.3127     -517.56229      1811.9962      904.26608    
  40954000   255.09        -419.3519      -333.91894     -419.32295      0              6706.9749      30.923         21.319344      32.626169      21509.065      6956.3778      6885.3894      6279.1576     -469.98833      1688.4039     -686.39985    
  40956000   247.19677     -419.11482     -336.3254      -419.10882      0              4994.2962      30.923         21.319344      32.54587       21456.128      4810.1339      3532.1561      6640.5988      123.36923      692.63526     -725.35363    
  40958000   246.60916     -422.76585     -340.17323     -422.76919      0              5264.6241      30.923         21.319344      32.602025      21493.148      5220.0608      5062.5245      5511.2869      35.095147     -195.85913      1039.0955    
  40960000   251.11935     -419.31885     -335.2157      -419.31369      0              7238.2674      30.923         21.319344      32.714775      21567.48       4848.9758      8186.8558      8678.9705      667.80061      1169.5819      400.37903    
  40962000   242.6566      -420.8601      -339.59125     -420.85701      0              4015.8183      30.923         21.319344      32.726879      21575.459      3843.2098      3656.574       4547.6712     -359.72252     -728.66952      470.38225    
  40964000   245.8878      -420.10945     -337.75842     -420.10662      0              6217.8796      30.923         21.319344      32.676794      21542.44       5442.1366      6704.8742      6506.6281      481.83131      511.08321      2374.6599    
  40966000   248.34373     -421.92848     -338.75492     -421.93506      0              6012.9326      30.923         21.319344      32.725352      21574.453      4830.5215      5001.0864      8207.1898      1130.9864      1511.9259      622.805      
  40968000   245.38216     -423.3466      -341.16492     -423.36248      0              7087.563       30.923         21.319344      32.566707      21469.865      5613.2749      7334.0911      8315.3229     -437.71691      1472.4823      219.16694    
  40970000   239.60613     -420.2139      -339.96668     -420.21994      0              7620.2613      30.923         21.319344      32.526951      21443.655      6746.7038      6717.664       9396.416      -520.59341     -1189.3151      1626.4757    
  40972000   254.40663     -420.04036     -334.83626     -420.04216      0              5188.5986      30.923         21.319344      32.723977      21573.546      4705.676       4935.8747      5924.245       242.94049     -165.23245      282.03524    
  40974000   248.30456     -423.11204     -339.9516      -423.10779      0              7124.6629      30.923         21.319344      32.724495      21573.888      7965.3729      5831.131       7577.4848      968.78795      194.05813      1602.7081    
  40976000   247.69887     -418.76238     -335.8048      -418.76547      0              5180.0178      30.923         21.319344      32.701117      21558.475      4801.7934      3540.2045      7198.0555      1264.0283     -572.2454       224.27836    
  40978000   237.94816     -420.068       -340.37606     -420.06433      0              5258.2474      30.923         21.319344      32.5656        21469.135      5811.481       5580.7382      4382.523       938.89593      1071.77       -525.11836    
  40980000   241.86588     -421.99666     -340.99262     -421.99751      0              6051.4434      30.923         21.319344      32.555687      21462.6        5150.5024      5197.0848      7806.743      -140.62222     -353.58773      454.83878    
  40982000   251.45412     -421.00668     -336.79142     -421.01126      0              5315.5309      30.923         21.319344      32.527177      21443.804      5136.5923      5322.6909      5487.3094      1175.2896     -1605.3661      1155.061     
  40984000   247.08655     -418.92679     -336.17428     -418.92835      0              6953.0239      30.923         21.319344      32.427676      21378.207      7790.4159      6565.1513      6503.5046     -695.63782      181.9072       779.31402    
  40986000   242.39379     -418.65655     -337.47571     -418.6461       0              7248.993       30.923         21.319344      32.390103      21353.437      8303.7919      5847.0701      7596.1171      1433.1082     -366.61251      1102.6214    
  40988000   250.1958      -420.29417     -336.50033     -420.30204      0              4495.118       30.923         21.319344      32.539606      21451.998      6314.7776      3409.5513      3761.0251     -135.65343      97.750287      869.37485    
  40990000   241.94437     -418.79059     -337.76027     -418.78564      0              7960.0747      30.923         21.319344      32.529967      21445.643      7886.8686      9690.286       6303.0696      1010.0827     -287.21569     -719.00872    
  40992000   247.12628     -419.6323      -336.86649     -419.62918      0              6157.8374      30.923         21.319344      32.553784      21461.345      6547.7921      6237.7183      5688.0017      300.34555      360.12309      707.88516    
  40994000   244.05076     -419.32854     -337.59275     -419.33144      0              6174.4261      30.923         21.319344      32.574255      21474.84       6586.5828      5444.1775      6492.5181      1394.1035      682.8492       427.96788    
  40996000   237.79096     -419.44832     -339.80903     -419.44699      0              4832.0579      30.923         21.319344      32.603101      21493.857      6127.5376      3490.5968      4878.0393     -876.32812     -422.7069      -82.879147    
  40998000   246.12416     -418.33165     -335.90146     -418.34665      0              6062.3448      30.923         21.319344      32.511859      21433.705      2822.2207      8381.6922      6983.1216     -850.51067     -884.58148     -321.49733    
  41000000   242.28287     -416.44804     -335.30435     -416.44872      0              6227.048       30.923         21.319344      32.469147      21405.548      7413.689       6545.1271      4722.328      -1216.8552     -132.28159     -2188.0223    
  41002000   240.97977     -420.20389     -339.49663     -420.1969       0              5095.031       30.923         21.319344      32.413083      21368.587      5783.6071      5207.439       4294.047       1405.2241      444.27001     -1168.8402    
  41004000   248.62643     -416.82263     -333.5544      -416.82017      0              7023.4524      30.923         21.319344      32.440333      21386.551      6485.523       8291.5645      6293.2697     -1176.1934     -191.57874      237.91591    
  41006000   238.99605     -419.87154     -339.82865     -419.88367      0              7109.259       30.923         21.319344      32.434809      21382.91       8020.9667      7251.195       6055.6152      700.25318      200.24604      757.18735    
  41008000   240.04011     -420.03785     -339.64528     -420.05321      0              6393.9947      30.923         21.319344      32.303675      21296.458      7982.2316      7237.1476      3962.605      -1585.1277     -916.21078     -2539.5766    
  41010000   247.14568     -420.46586     -337.69355     -420.4696       0              6650.2754      30.923         21.319344      32.333685      21316.243      6458.8646      6894.7177      6597.244       1441.7729      608.55975      158.96451    
  41012000   237.47783     -417.17991     -337.64549     -417.18271      0              8767.4084      30.923         21.319344      32.093659      21158.004      10376.533      6773.9338      9151.7586      909.79329     -363.0917      -1807.0118    
  41014000   245.51087     -419.62309     -337.3983      -419.63064      0              6128.9087      30.923         21.319344      32.408676      21365.681      7200.473       5804.5497      5381.7035      1002.3259      463.5906      -771.38593    
  41016000   247.75321     -419.16654     -336.19076     -419.17074      0              6870.0051      30.923         21.319344      32.380244      21346.937      9479.445       6410.1414      4720.4288      1833.4071     -1559.6555     -570.02488    
  41018000   246.52143     -420.39965     -337.8364      -420.39575      0              5721.1801      30.923         21.319344      32.385774      21350.583      3271.2384      8418.4699      5473.832       13.290834      526.34467     -1515.1116    
  41020000   247.36885     -418.96267     -336.11562     -418.96427      0              6693.1258      30.923         21.319344      32.344236      21323.199      7860.6525      6230.5118      5988.2131     -28.220375     -1069.496      -1997.6327    
  41022000   245.54218     -422.19158     -339.9563      -422.20061      0              4255.3108      30.923         21.319344      32.605734      21495.593      4261.9547      3308.8921      5195.0855     -202.3856       183.85809      555.35229    
  41024000   244.86325     -420.79        -338.78211     -420.79125      0              5834.3867      30.923         21.319344      32.543871      21454.81       6923.2269      7411.8385      3168.0947      639.95344      144.88059      480.7386     
  41026000   242.42746     -419.47074     -338.27863     -419.47742      0              7428.3317      30.923         21.319344      32.51382       21434.998      6411.2465      6759.7619      9113.9869     -370.57916      506.7742       263.62027    
  41028000   247.39898     -418.28542     -335.42828     -418.28957      0              6872.3448      30.923         21.319344      32.432132      21381.145      7160.8798      6837.8025      6618.3521     -631.5491       1823.7659     -583.97385    
  41030000   240.99845     -419.63305     -338.91953     -419.6296       0              6066.4007      30.923         21.319344      32.420142      21373.241      6415.4708      7110.3288      4673.4024      1383.5709     -2682.8628     -656.14225    
  41032000   256.2964      -422.84743     -337.01042     -422.85665      0              6958.6357      30.923         21.319344      32.406563      21364.288      8043.6937      7076.4474      5755.7661     -313.87454      954.17104      1255.6325    
  41034000   248.72154     -418.71611     -335.41603     -418.71255      0              5224.6288      30.923         21.319344      32.504263      21428.698      6928.3798      4723.7024      4021.8041     -1594.3843      966.86112     -313.90409    
  41036000   245.07749     -419.71995     -337.6403      -419.72134      0              5294.755       30.923         21.319344      32.436522      21384.039      7295.3807      2886.0816      5702.8026     -513.22172     -1013.4392      260.93281    
  41038000   247.14761     -420.74818     -337.97523     -420.76388      0              6727.4662      30.923         21.319344      32.314551      21303.628      6885.7053      5880.8704      7415.823       460.15275      109.25665     -1503.0226    
  41040000   247.62256     -420.65138     -337.71936     -420.65912      0              7787.8412      30.923         21.319344      32.408697      21365.695      8340.0769      7896.4032      7127.0434      1323.6074      215.3186      -286.34095    
  41042000   247.6893      -417.64697     -334.6926      -417.65079      0              7211.2375      30.923         21.319344      32.437897      21384.946      6178.4522      7663.1672      7792.0932      693.9173      -611.67548     -38.346218    
  41044000   244.3046      -422.70464     -340.88385     -422.7197       0              7047.6092      30.923         21.319344      32.280865      21281.421      7562.451       7076.5385      6503.838       1266.591      -74.474087     -73.958317    
  41046000   244.24773     -418.28987     -336.48812     -418.29308      0              4701.7728      30.923         21.319344      32.328592      21312.885      6187.176       3400.3546      4517.7877     -898.77615     -819.16535      61.394833    
  41048000   250.51345     -420.5174      -336.61718     -420.51564      0              6417.6132      30.923         21.319344      32.509672      21432.264      7449.3851      7077.294       4726.1606     -892.14016     -1547.0305      2463.2011    
  41050000   244.04076     -418.94471     -337.21228     -418.93858      0              5651.7453      30.923         21.319344      32.438793      21385.536      6047.6583      4687.8358      6219.7419      121.29859      564.63376      1754.8573    
  41052000   245.60925     -421.27887     -339.02113     -421.27653      0              6565.1811      30.923         21.319344      32.506603      21430.24       7740.5699      6791.4479      5163.5256     -287.91916     -590.87978      806.1557     
  41054000   248.17994     -421.77777     -338.65907     -421.78847      0              8147.9707      30.923         21.319344      32.284793      21284.011      8619.8459      7161.958       8662.1082      316.14559     -1606.7829      1596.9315    
  41056000   244.96543     -421.95064     -339.90853     -421.95825      0              6606.4137      30.923         21.319344      32.439713      21386.143      7148.3474      6999.4423      5671.4515     -315.6102       21.238288      299.78867    
  41058000   250.1816      -424.34034     -340.55126     -424.35496      0              6689.6788      30.923         21.319344      32.29433       21290.298      8695.1551      4325.714       7048.1674      214.85947     -280.14674      1597.9519    
  41060000   243.59709     -419.85884     -338.275       -419.86216      0              5770.2089      30.923         21.319344      32.423638      21375.545      5660.8614      7328.5232      4321.2419      9.9136498     -1369.884       367.60107    
  41062000   239.91594     -423.13021     -342.77924     -423.15686      0              6203.8548      30.923         21.319344      32.340898      21320.998      6468.8559      4737.8963      7404.8122      383.46191     -1710.6651     -140.52905    
  41064000   247.57174     -420.81173     -337.89672     -420.82612      0              5017.8343      30.923         21.319344      32.440294      21386.526      7213.2935      3732.8502      4107.3591      284.37894      1075.2653      1330.8648    
  41066000   247.136       -421.36197     -338.5929      -421.38166      0              5195.8633      30.923         21.319344      32.456502      21397.211      8059.9958      4396.2339      3131.3602     -117.95954      831.948       -458.00266    
  41068000   243.4932      -419.1319      -337.58286     -419.14655      0              6344.4188      30.923         21.319344      32.428622      21378.831      4812.948       7696.2796      6524.0289      988.02763      483.89586      688.10587    
  41070000   243.92985     -419.71367     -338.01839     -419.70624      0              7054.5812      30.923         21.319344      32.308618      21299.717      8117.2613      5669.2514      7377.2308     -789.3054       835.17627      1187.455     
  41072000   247.45928     -420.76058     -337.88324     -420.77245      0              4429.7059      30.923         21.319344      32.281929      21282.123      3855.0094      3170.435       6263.6732     -1656.3014      1235.972       353.62804    
  41074000   253.97541     -422.14931     -337.08964     -422.163        0              5686.2426      30.923         21.319344      32.250068      21261.118      6002.1796      5731.2239      5325.3243      811.2168       418.41336      538.6025     
  41076000   240.54112     -420.53291     -339.97255     -420.53965      0              6709.9264      30.923         21.319344      32.293468      21289.729      6596.3412      7614.0709      5919.3672     -370.4572       1033.954       382.54321    
  41078000   241.25512     -419.64392     -338.84444     -419.64675      0              5082.0854      30.923         21.319344      32.268751      21273.434      4220.3079      3471.9536      7553.9948     -300.62601      1485.7316      1198.969     
  41080000   241.14652     -422.5777      -341.81459     -422.57935      0              6786.9675      30.923         21.319344      32.365364      21337.127      5678.3803      7033.2988      7649.2235      674.99703      429.84464     -655.22833    
  41082000   239.74867     -424.10253     -343.80757     -424.11975      0              6348.8641      30.923         21.319344      32.268009      21272.945      6949.7283      5896.0478      6200.8163      36.446081     -531.30465      1121.5797    
  41084000   244.16682     -420.47309     -338.69844     -420.46475      0              7189.1625      30.923         21.319344      32.439063      21385.714      6031.0957      7410.3571      8126.0347     -992.15437     -45.236249     -94.396698    
  41086000   243.82708     -423.34646     -341.6856      -423.34997      0              5965.084       30.923         21.319344      32.483776      21415.192      3974.2747      7104.8041      6816.1732     -954.82907      469.1029       124.12752    
  41088000   247.69134     -421.7988      -338.84374     -421.815        0              8084.0538      30.923         21.319344      32.370766      21340.689      9901.6894      8023.1211      6327.3508     -24.394445      1654.0545     -2536.236     
  41090000   242.95482     -420.72113     -339.35239     -420.71216      0              5931.0495      30.923         21.319344      32.473862      21408.656      5136.361       6325.478       6331.3096      169.69166      254.69138     -471.20822    
  41092000   248.80728     -419.34429     -336.01549     -419.34127      0              6293.5325      30.923         21.319344      32.502123      21427.287      5007.6087      6943.2464      6929.7424      238.97275      1300.8289      1423.1941    
  41094000   242.4839      -422.64816     -341.43714     -422.64926      0              4164.7493      30.923         21.319344      32.44891       21392.206      4897.1892      3422.4283      4174.6304     -329.7139      -1368.0825      679.50693    
  41096000   242.43322     -420.33563     -339.14159     -420.30419      0              4004.819       30.923         21.319344      32.553996      21461.485      5306.1741      3356.0833      3352.1995     -1021.4553      631.28954      951.97535    
  41098000   246.19056     -425.04183     -342.5894      -425.04003      0              6108.8337      30.923         21.319344      32.553015      21460.838      5817.6533      5485.8366      7023.0111      740.20958     -1609.1839     -53.235948    
  41100000   238.30243     -419.3418      -339.53121     -419.32737      0              4078.7728      30.923         21.319344      32.618114      21503.755      2189.9761      5801.6379      4244.7043      1328.7418      1591.2572     -1319.5923    
  41102000   246.02603     -420.84557     -338.44824     -420.85154      0              6872.7265      30.923         21.319344      32.457187      21397.662      7985.9491      7718.4539      4913.7766      534.06866      1364.0148      526.8313     
  41104000   247.19939     -422.66112     -339.87082     -422.65694      0              4700.5577      30.923         21.319344      32.513486      21434.778      3859.2457      5792.3906      4450.0369      317.26505     -20.307664      68.043022    
  41106000   243.53029     -422.48655     -340.92508     -422.50353      0              5694.2832      30.923         21.319344      32.54207       21453.623      6982.6996      5128.8166      4971.3334     -1592.8537      366.97006     -608.93192    
  41108000   238.66342     -423.54594     -343.61445     -423.55054      0              6358.2121      30.923         21.319344      32.440616      21386.738      7093.6765      6226.8412      5754.1185      363.4257       49.299098     -22.282846    
  41110000   244.64529     -419.75319     -337.81829     -419.75665      0              5970.4446      30.923         21.319344      32.50498       21429.17       5260.0694      7350.2796      5300.9849     -119.33517     -1172.2646      770.4879     
  41112000   246.29511     -420.84206     -338.35461     -420.84444      0              6150.5053      30.923         21.319344      32.555755      21462.644      6193.6832      7316.1781      4941.6547     -182.01624     -1683.1541      215.85676    
  41114000   247.19165     -421.26667     -338.47896     -421.27302      0              8980.1746      30.923         21.319344      32.305911      21297.932      6586.1071      11252.209      9102.2079      1180.6533      824.09747      825.88033    
  41116000   242.22032     -419.25013     -338.12739     -419.25295      0              5699.0912      30.923         21.319344      32.614887      21501.627      6563.7779      4987.8247      5545.671       1529.9519     -78.730113     -239.14771    
  41118000   247.94982     -417.55819     -334.51656     -417.5502       0              8632.7191      30.923         21.319344      32.46373       21401.976      7830.4717      8990.1036      9077.5819     -209.87419      914.3361       2032.8264    
  41120000   247.7011      -418.00854     -335.05021     -418.0043       0              6043.7252      30.923         21.319344      32.422466      21374.772      6178.3004      6217.1239      5735.7512     -1737.6846      1012.475      -2759.0755    
  41122000   237.80529     -421.37107     -341.72697     -421.3652       0              6186.213       30.923         21.319344      32.531513      21446.663      9257.6405      5128.8703      4172.1282     -326.19243     -1103.2614     -1541.5095    
  41124000   243.93149     -422.24246     -340.54662     -422.25105      0              7726.9895      30.923         21.319344      32.433767      21382.223      7013.966       8377.0405      7789.9621     -65.019584     -393.30104     -720.73228    
  41126000   250.09695     -422.17837     -338.41764     -422.18577      0              5205.5865      30.923         21.319344      32.50152       21426.889      4700.9318      5849.1929      5066.6347      973.14739      558.50786      237.23225    
  41128000   246.84999     -419.69802     -337.02474     -419.70485      0              5519.5483      30.923         21.319344      32.459778      21399.37       7663.3388      4565.62        4329.6862     -499.79291     -695.01747      1478.7892    
  41130000   244.64337     -419.24262     -337.30837     -419.24125      0              5413.1977      30.923         21.319344      32.59598       21489.163      6443.9951      5236.1419      4559.4562      39.147797      274.88775     -104.02765    
  41132000   244.49998     -417.80776     -335.92153     -417.81913      0              6480.256       30.923         21.319344      32.525796      21442.894      7278.9805      6913.4718      5248.3159     -331.77369      601.52962     -1696.7404    
  41134000   246.70377     -419.48239     -336.85809     -419.47005      0              6757.9042      30.923         21.319344      32.539186      21451.721      8667.2162      6367.399       5239.0973     -160.84487     -2372.6627     -189.65293    
  41136000   240.22739     -421.44729     -340.992       -421.45043      0              7275.8733      30.923         21.319344      32.481118      21413.439      7084.953       8191.4616      6551.2052      668.14104     -1696.6233     -417.02795    
  41138000   246.91329     -420.32308     -337.6286      -420.3311       0              4632.1452      30.923         21.319344      32.460924      21400.126      5505.6364      3557.9874      4832.8118     -55.541622     -699.51133      329.86264    
  41140000   246.8943      -420.9491      -338.26099     -420.95421      0              7258.6431      30.923         21.319344      32.401618      21361.028      6909.9782      6866.8532      7999.0979     -1182.4822      831.57785      351.51504    
  41142000   245.07942     -419.9834      -337.90311     -420.00151      0              5039.8461      30.923         21.319344      32.504067      21428.568      5434.3122      4711.9735      4973.2526      1775.746      -19.981425     -155.88547    
  41144000   245.17724     -421.63962     -339.52657     -421.65478      0              5065.8827      30.923         21.319344      32.698758      21556.92       2456.6529      5935.246       6805.7493     -269.98306     -676.07477      866.69028    
  41146000   239.68444     -419.41869     -339.14524     -419.42674      0              6037.5815      30.923         21.319344      32.536537      21449.975      5145.4586      8188.6519      4778.6339      74.551095     -285.2578      -185.08263    
  41148000   248.41964     -417.7123      -334.51332     -417.72935      0              6113.9288      30.923         21.319344      32.519364      21438.653      6189.0723      6413.808       5738.9062     -1169.1902      869.71705      1920.7611    
  41150000   242.63667     -421.18043     -339.91824     -421.20223      0              6400.3094      30.923         21.319344      32.447447      21391.241      4443.7151      7112.8662      7644.347       983.06515      667.10085     -1176.6083    
  41152000   242.9841      -417.9901      -336.61155     -417.98876      0              5483.5995      30.923         21.319344      32.335896      21317.7        3853.8298      4980.4537      7616.5152      612.04711     -567.1127       819.9065     
  41154000   241.92644     -419.16549     -338.14117     -419.17192      0              7438.7442      30.923         21.319344      32.168575      21207.393      7835.531       6879.6013      7601.1003     -163.59989      1007.1105      917.01898    
  41156000   249.13957     -419.41089     -335.9708      -419.41443      0              6664.5759      30.923         21.319344      32.394325      21356.22       5277.5273      8144.4899      6571.7104      354.88825     -477.37299      296.59608    
  41158000   239.82782     -420.02864     -339.70717     -420.03188      0              6704.2424      30.923         21.319344      32.435727      21383.515      8490.9296      5631.999       5989.7984     -937.63158     -1631.4547      1573.6128    
  41160000   246.1674      -423.01008     -340.56541     -423.01905      0              3836.0751      30.923         21.319344      32.341999      21321.724      3162.384       3708.0289      4637.8125      1201.7382     -993.97247     -417.26546    
  41162000   239.27627     -418.60424     -338.4675      -418.61294      0              6719.5038      30.923         21.319344      32.261039      21268.35       7314.0894      6470.319       6374.1028     -702.52033     -3125.7629     -1424.6629    
  41164000   253.6236      -419.16326     -334.22141     -419.17144      0              5497.8206      30.923         21.319344      32.304468      21296.982      7156.2411      6391.774       2945.4468     -205.14432     -634.62073     -1593.7457    
  41166000   240.90407     -420.33446     -339.65255     -420.33681      0              6154.3497      30.923         21.319344      32.385922      21350.68       6672.1226      6126.246       5664.6803      709.73113     -717.40634     -317.15296    
  41168000   243.06584     -420.24694     -338.84102     -420.25014      0              6546.8521      30.923         21.319344      32.347255      21325.189      6151.866       7908.4285      5580.262       1462.7666     -310.06212      1211.2721    
  41170000   244.06274     -418.73164     -336.99185     -418.7362       0              6810.9916      30.923         21.319344      32.418734      21372.312      7421.7071      4793.346       8217.9216      209.53275     -1096.2272      314.19083    
  41172000   247.55841     -420.01447     -337.10393     -420.02172      0              6206.342       30.923         21.319344      32.443414      21388.583      6600.2691      5660.7805      6357.9764      1348.925      -591.65314      486.02495    
  41174000   240.91647     -417.83087     -337.14481     -417.82701      0              5196.745       30.923         21.319344      32.460952      21400.145      5056.5339      6564.0684      3969.6326      1216.1798      388.67927     -2419.1462    
  41176000   253.23893     -418.39254     -333.57952     -418.3902       0              7736.6232      30.923         21.319344      32.304782      21297.189      4982.8963      9019.5501      9207.4231     -245.99169      294.10022     -184.40718    
  41178000   243.14508     -416.56948     -335.13702     -416.57194      0              6694.4368      30.923         21.319344      32.37326       21342.333      10046.41       4327.0527      5709.8481     -1030.0934     -1647.0742     -194.41092    
  41180000   252.94202     -420.98947     -336.27589     -420.98798      0              7011.5211      30.923         21.319344      32.325986      21311.167      5429.9268      7247.2506      8357.3861     -405.85568     -429.40959      736.09928    
  41182000   246.67287     -419.68137     -337.06741     -419.69268      0              6468.6524      30.923         21.319344      32.296751      21291.894      7636.048       4864.3464      6905.5629     -1115.2464     -1336.9527      1478.8126    
  41184000   244.13304     -418.87686     -337.11352     -418.87431      0              6008.6597      30.923         21.319344      32.371557      21341.21       6386.5942      5830.6843      5808.7005      568.91839      185.0485       328.8702     
  41186000   241.9314      -418.02755     -337.00157     -418.02803      0              6200.8423      30.923         21.319344      32.352885      21328.901      5350.6096      5956.9666      7294.9507      1628.4019      832.00158     -627.81542    
  41188000   248.61206     -422.05333     -338.78991     -422.06149      0              7438.3811      30.923         21.319344      32.134935      21185.215      6994.2843      5712.1597      9608.6993      12.862098     -388.78167      180.54539    
  41190000   239.8751      -420.40419     -340.06689     -420.40694      0              7616.2273      30.923         21.319344      32.197192      21226.259      7042.8948      8871.8512      6933.9359     -111.60677      215.4327       1002.239     
  41192000   238.13671     -419.52609     -339.771       -419.52893      0              3452.5117      30.923         21.319344      32.321152      21307.98       2990.7978      4469.0201      2897.7173     -1542.1164     -286.02078      187.74024    
  41194000   249.03412     -418.61371     -335.20894     -418.62362      0              6093.7034      30.923         21.319344      32.394851      21356.567      5195.2578      6220.3243      6865.5283     -572.56469      907.31062      2554.2785    
  41196000   238.81773     -418.6697      -338.68653     -418.66938      0              5239.2726      30.923         21.319344      32.33871       21319.556      3879.3988      6558.2539      5280.165       330.81265      660.73035      1238.2449    
  41198000   244.5032      -419.54716     -337.65986     -419.5511       0              6132.9657      30.923         21.319344      32.413804      21369.062      6393.7339      5390.878       6614.2851     -692.59686      789.57695      1403.6856    
  41200000   248.77236     -417.8176      -334.5005      -417.81433      0              5156.584       30.923         21.319344      32.440844      21386.888      4556.7187      5033.6451      5879.3882     -148.06032     -705.54047     -837.63873    
  41202000   242.91792     -420.1848      -338.82843     -420.2003       0              6350.7868      30.923         21.319344      32.456982      21397.528      6400.0673      6994.9524      5657.3406     -537.25919     -542.26784      600.26627    
  41204000   243.9239      -418.22035     -336.52705     -418.20666      0              5937.6799      30.923         21.319344      32.535866      21449.533      6314.9638      5410.0028      6088.073       2606.0977      1259.6748      527.8271     
  41206000   244.48136     -420.9517      -339.0717      -420.95112      0              6414.8794      30.923         21.319344      32.459303      21399.058      8019.8919      4742.1546      6482.5916      43.254986      1169.7208     -537.0851     
  41208000   249.39098     -418.38524     -334.86095     -418.38249      0              4800.2791      30.923         21.319344      32.490427      21419.576      4728.8557      4550.1954      5121.7861      1225.4109     -466.83751     -358.296      
  41210000   243.18379     -414.90754     -333.46212     -414.89252      0              7577.4642      30.923         21.319344      32.458757      21398.698      8363.3552      6580.5428      7788.4945     -1687.0764     -1092.7896     -397.72211    
  41212000   250.89221     -420.66891     -336.64184     -420.66712      0              5223.3223      30.923         21.319344      32.364145      21336.324      7263.0347      4497.2669      3909.6654     -741.36094     -1192.2386      310.21256    
  41214000   243.91287     -418.22964     -336.54004     -418.21674      0              5858.049       30.923         21.319344      32.378034      21345.48       5862.6568      6146.4489      5565.0412      108.35077      1718.6529      1889.2134    
  41216000   236.03861     -416.96703     -337.91462     -416.92696      0              6139.2551      30.923         21.319344      32.476767      21410.571      6652.8539      6090.2123      5674.6991      1472.5198     -215.34575      2145.246     
  41218000   247.68984     -416.92442     -333.96986     -416.92584      0              6565.3273      30.923         21.319344      32.55869       21464.579      7053.4257      7217.9976      5424.5587      927.88242     -362.99579      1643.8037    
  41220000   244.71609     -418.48671     -336.5281      -418.47051      0              9315.112       30.923         21.319344      32.501947      21427.171      10184.567      9513.449       8247.3206     -1903.1763     -460.17815     -875.02822    
  41222000   239.71781     -416.05959     -335.77497     -416.06018      0              6464.5907      30.923         21.319344      32.312226      21302.096      5118.5875      7349.4248      6925.7599      232.07268      646.63        -1584.226     
  41224000   242.94905     -419.72493     -338.35813     -419.73051      0              6135.4443      30.923         21.319344      32.295134      21290.828      6956.7434      4676.8041      6772.7855     -1345.9518     -1673.0268     -317.64724    
  41226000   244.76489     -416.70557     -334.73062     -416.70277      0              4881.2514      30.923         21.319344      32.417579      21371.551      4145.0923      5625.7397      4872.9223     -627.37308     -300.11364     -2161.742     
  41228000   243.77103     -418.37238     -336.73028     -418.37674      0              7864.6041      30.923         21.319344      32.620325      21505.213      6857.3369      9833.8631      6902.6124     -150.00309      849.39006      642.72204    
  41230000   245.68772     -417.60712     -335.3231      -417.60336      0              5760.5859      30.923         21.319344      32.416104      21370.579      6297.163       6669.928       4314.6665      274.78222     -1274.2729      553.02354    
  41232000   248.21626     -418.54877     -335.4179      -418.53437      0              6206.9787      30.923         21.319344      32.487726      21417.796      4313.5078      7458.5989      6848.8293     -489.50603      1061.028       620.47503    
  41234000   242.40114     -418.44243     -337.25913     -418.45888      0              5175.2535      30.923         21.319344      32.580282      21478.814      5924.9784      6602.9598      2997.8224     -469.9254       1190.2742      1117.0353    
  41236000   246.03793     -416.86429     -334.46297     -416.85898      0              4814.4347      30.923         21.319344      32.632129      21512.994      2831.1051      4106.7584      7505.4406      1546.5057      807.3934       1361.4591    
  41238000   240.53155     -416.34431     -335.78716     -416.34039      0              5251.1457      30.923         21.319344      32.488623      21418.387      5959.6888      5450.0804      4343.6678      1234.2732     -1778.5618     -106.59283    
  41240000   243.62614     -416.2309      -334.63732     -416.22216      0              6465.8262      30.923         21.319344      32.543813      21454.772      6293.3773      5308.1566      7795.9447      768.23237     -768.96999     -290.0408     
  41242000   241.28217     -422.06147     -341.25292     -422.0663       0              6478.2222      30.923         21.319344      32.467004      21404.134      8127.9019      6117.4296      5189.3351      152.01168     -476.18934      176.07862    
  41244000   239.13717     -418.19451     -338.10435     -418.19901      0              5935.291       30.923         21.319344      32.443258      21388.48       5092.5451      7199.3087      5514.0192      559.51457     -158.04966     -559.00378    
  41246000   253.43185     -418.52659     -333.64896     -418.533        0              7274.6175      30.923         21.319344      32.531817      21446.863      8280.5734      6701.7789      6841.5004      745.87217     -1310.3174      1042.9505    
  41248000   248.14852     -416.63397     -333.5258      -416.63034      0              5129.6348      30.923         21.319344      32.456663      21397.317      4596.3085      5824.7854      4967.8104     -1044.3864      412.13639      919.09871    
  41250000   248.96437     -417.27128     -333.88986     -417.26598      0              6383.0278      30.923         21.319344      32.54233       21453.794      8631.3006      5250.4609      5267.322       1462.3176     -1222.0169      384.81949    
  41252000   244.00388     -420.85954     -339.13946     -420.87334      0              6863.2732      30.923         21.319344      32.61826       21503.851      6534.0081      7924.2682      6131.5432      372.82129      527.5643       1332.6616    
  41254000   245.30625     -416.98794     -334.83168     -416.98527      0              7513.645       30.923         21.319344      32.496298      21423.447      5740.612       7631.3892      9168.9339      712.90026      1957.2806      695.08428    
  41256000   244.23645     -417.50477     -335.7068      -417.51204      0              7006.117       30.923         21.319344      32.57357       21474.389      8110.6002      7722.7956      5184.955      -741.3699       662.00066      471.16805    
  41258000   251.85966     -419.21201     -334.86093     -419.21652      0              5269.4075      30.923         21.319344      32.605578      21495.49       6860.0476      4677.2808      4270.8939     -1763.1783      715.75589      123.61189    
  41260000   253.12767     -421.72337     -336.94761     -421.72932      0              7049.0486      30.923         21.319344      32.457819      21398.08       7530.3236      8166.8843      5449.938      -952.69938     -516.85298     -624.49626    
  41262000   245.14308     -419.65068     -337.54907     -419.66357      0              7065.7138      30.923         21.319344      32.477636      21411.144      5485.4503      7643.7581      8067.9329      264.02136      190.18629     -1014.5407    
  41264000   243.86749     -417.85861     -336.18421     -417.85083      0              4773.5362      30.923         21.319344      32.365723      21337.365      4243.6208      6038.3685      4038.6192      1450.6432     -263.25754      1434.7762    
  41266000   240.44913     -415.80925     -335.2797      -415.81506      0              8081.2438      30.923         21.319344      32.388318      21352.26       6840.4004      7596.7952      9806.5357     -1433.493       770.87559      2475.5576    
  41268000   247.48367     -421.9957      -339.11019     -422.00113      0              5048.1724      30.923         21.319344      32.45002       21392.938      5716.0487      4093.2063      5335.2622     -483.08258      116.15811     -248.9797     
  41270000   243.28737     -415.80624     -334.32612     -415.77634      0              6962.3308      30.923         21.319344      32.527578      21444.068      7308.1405      8007.744       5571.108       261.99818      453.97245     -1829.0451    
  41272000   250.99342     -417.9733      -333.91233     -417.96746      0              6557.8302      30.923         21.319344      32.392114      21354.763      8191.458       5946.1634      5535.8691      493.41701     -715.9702       591.84547    
  41274000   248.174       -418.08789     -334.97119     -418.08688      0              7427.6671      30.923         21.319344      32.428238      21378.578      6829.7049      7399.323       8053.9734     -2353.2126      907.39781      1256.2548    
  41276000   246.5656      -418.85035     -336.27232     -418.85141      0              8395.8945      30.923         21.319344      32.382476      21348.409      8802.1197      6663.3195      9722.2444      1272.4742     -135.18341      1484.9372    
[...]
  45970000   242.99881     -416.0469      -334.66344     -415.99586      0              5799.4137      30.923         21.319344      32.609679      21498.194      5936.3301      5054.9133      6406.9977      612.87531      1724.2811      150.35633    
  45972000   247.74771     -416.2658      -333.29186     -416.20767      0              6132.0329      30.923         21.319344      32.544241      21455.054      5197.9652      5884.3779      7313.7557     -693.16813      1430.579       804.26669    
  45974000   240.21304     -415.3363      -334.88582     -415.28252      0              5849.6763      30.923         21.319344      32.589998      21485.219      6573.4968      5400.9141      5574.618       608.41675     -1670.599       727.4754     
  45976000   239.00198     -415.52555     -335.48067     -415.46395      0              7060.1839      30.923         21.319344      32.773462      21606.17       6568.3776      6628.4981      7983.676       736.04525     -1892.8792      340.48637    
  45978000   247.35936     -418.59612     -335.75225     -418.53546      0              7494.0385      30.923         21.319344      32.589308      21484.765      10237.232      7744.3331      4500.5504     -1443.4405     -61.180408     -241.32305    
  45980000   253.69358     -414.60268     -329.6374      -414.54968      0              5303.7522      30.923         21.319344      32.721123      21571.664      7006.4112      3937.2324      4967.613       201.93283     -411.07798     -971.95855    
  45982000   240.94601     -416.16045     -335.46449     -416.10517      0              7424.5799      30.923         21.319344      32.559105      21464.853      6328.2166      7013.4964      8932.0266     -1509.1176     -1655.5164     -393.9299     
  45984000   245.50763     -419.90528     -337.68158     -419.86063      0              4786.9941      30.923         21.319344      32.691269      21551.983      2965.4146      6693.8414      4701.7262     -983.3599       960.54191      440.62248    
  45986000   240.59135     -417.40023     -336.82305     -417.34508      0              5549.9526      30.923         21.319344      32.734179      21580.272      4874.0349      7036.0172      4739.8057      673.09428      545.63971     -548.11571    
  45988000   241.48017     -419.43026     -338.5554      -419.39735      0              6590.7759      30.923         21.319344      32.578498      21477.638      7043.4658      6494.2872      6234.5747     -2000.9043      469.38169     -302.68942    
  45990000   243.97556     -416.37677     -334.66617     -416.31461      0              6497.4922      30.923         21.319344      32.772403      21605.471      6422.694       5553.841       7515.9416     -2.1922053     -241.78241      157.04171    
  45992000   239.59716     -419.92802     -339.68381     -419.89415      0              5241.5529      30.923         21.319344      32.689951      21551.114      5950.3511      4710.8749      5063.4328     -828.96876     -777.40713     -419.77441    
  45994000   248.2416      -419.23523     -336.09588     -419.21431      0              5585.9231      30.923         21.319344      32.634391      21514.486      4211.7632      6133.4361      6412.5701     -426.40704      611.955       -738.86907    
  45996000   243.30835     -417.48579     -335.99865     -417.43611      0              6107.3469      30.923         21.319344      32.660021      21531.383      5805.7779      4794.9121      7721.3508     -1502.2546      275.89258      11.544709    
  45998000   242.11033     -416.83785     -335.75194     -416.79278      0              6317.141       30.923         21.319344      32.536373      21449.866      7857.3058      6481.1238      4612.9933     -996.28794      345.54079      948.66408    
  46000000   242.4725      -417.61975     -336.41255     -417.56694      0              3911.5221      30.923         21.319344      32.670591      21538.351      4809.5621      3896.8875      3028.1168      1524.9706      148.30623     -2494.5792    
  46002000   252.01        -415.66755     -331.26611     -415.61502      0              5635.3132      30.923         21.319344      32.704663      21560.813      8130.769       4087.7133      4687.4572      1231.8697     -67.354293      229.48578    
  46004000   240.4707      -416.73989     -336.20312     -416.67693      0              3988.1164      30.923         21.319344      32.806903      21628.216      2167.2679      4672.4836      5124.5977      1765.6248     -13.236005      794.16821    
  46006000   243.72634     -417.21678     -335.58965     -417.15689      0              4461.3376      30.923         21.319344      32.653121      21526.834      5385.7031      3258.031       4740.2788      649.73401      172.42466     -558.71698    
  46008000   249.11477     -416.97511     -333.54332     -416.91214      0              3873.3578      30.923         21.319344      32.66366       21533.782      4333.8886      3333.6036      3952.5812     -279.88918     -527.13037     -659.57961    
  46010000   244.41726     -417.68936     -335.83083     -417.6257       0              6621.7146      30.923         21.319344      32.606886      21496.353      6735.0195      6558.9541      6571.1702      185.32612      386.76458     -937.10225    
  46012000   244.79865     -416.75848     -334.77222     -416.69483      0              4910.426       30.923         21.319344      32.71944       21570.555      3797.9759      5138.9878      5794.3143      401.03144      1173.0863      26.600651    
  46014000   244.64979     -416.48242     -334.54602     -416.41888      0              7006.3644      30.923         21.319344      32.762022      21598.628      8218.0193      5200.9676      7600.1064      2558.6995     -848.72525     -979.21446    
  46016000   237.8409      -419.52103     -339.86502     -419.46182      0              7945.0586      30.923         21.319344      32.436481      21384.012      6668.2389      6938.2609      10228.676      420.33913     -1302.6487      471.34362    
  46018000   250.81546     -418.64801     -334.64664     -418.61071      0              6771.5148      30.923         21.319344      32.423306      21375.327      5318.9228      7984.0915      7011.5302     -91.227299     -1015.8189     -1447.8697    
  46020000   245.47665     -416.36825     -334.15492     -416.31061      0              5520.4154      30.923         21.319344      32.723453      21573.201      4649.5776      7643.8855      4267.7832      841.04202     -362.0162       45.666636    
  46022000   243.78133     -418.11226     -336.46671     -418.04913      0              6872.0464      30.923         21.319344      32.60468       21494.899      5902.331       7655.4123      7058.3958     -797.69144     -57.351542     -1430.0735    
  46024000   240.83596     -416.53565     -335.87655     -416.4839       0              4857.2641      30.923         21.319344      32.676159      21542.022      6133.582       6614.0048      1824.2056      613.81789     -267.09721      541.96193    
  46026000   242.90143     -416.10794     -334.75708     -416.05145      0              5832.2626      30.923         21.319344      32.658321      21530.262      6436.2132      6981.0183      4079.5564     -178.98898     -999.42116     -1811.1935    
  46028000   244.28443     -415.75742     -333.94338     -415.69373      0              5034.151       30.923         21.319344      32.63627       21515.725      4417.6928      4654.2817      6030.4785      593.478       -1503.2919      777.6372     
  46030000   238.94458     -414.93279     -334.90713     -414.87054      0              4797.5931      30.923         21.319344      32.694593      21554.175      3340.9551      4924.5931      6127.231      -560.55351     -155.20798      444.35544    
  46032000   246.93522     -416.75821     -334.05638     -416.69746      0              5677.1029      30.923         21.319344      32.60233       21493.349      4744.7705      5993.6512      6292.887       429.65595      27.759966      524.988      
  46034000   241.62787     -414.5304      -333.60607     -414.47272      0              7597.9942      30.923         21.319344      32.397665      21358.422      8857.4732      5288.4684      8648.0411      530.59405      252.22331     -815.83544    
  46036000   244.1113      -415.24496     -333.4889      -415.18583      0              7953.5424      30.923         21.319344      32.471163      21406.876      6725.8774      7313.0959      9821.6538      1179.0417     -144.64712      1570.7562    
  46038000   241.99557     -419.00159     -337.95412     -418.9438       0              5994.1527      30.923         21.319344      32.43983       21386.22       7654.5557      5290.6311      5037.2711     -324.69559      97.942195     -151.6688     
  46040000   245.91166     -418.70456     -336.34554     -418.64821      0              6539.4874      30.923         21.319344      32.510598      21432.874      5878.4598      7248.4059      6491.5965     -18.806602     -444.11421     -1084.3217    
  46042000   240.56468     -415.86106     -335.29281     -415.8095       0              7491.6909      30.923         21.319344      32.472974      21408.07       6768.4126      8667.523       7039.1371      599.58219     -388.20648     -26.114253    
  46044000   246.77289     -419.74446     -337.097       -419.68837      0              4295.9993      30.923         21.319344      32.554609      21461.889      4305.801       5242.3772      3339.8197     -206.50076      393.58807     -116.44007    
  46046000   243.82591     -415.34852     -333.68805     -415.29105      0              5644.8013      30.923         21.319344      32.601655      21492.904      5734.1873      6676.0384      4524.1782      177.62461      548.70198     -1142.0395    
  46048000   247.15135     -417.36761     -334.5934      -417.30691      0              4193.9695      30.923         21.319344      32.597086      21489.892      3544.2341      4693.2699      4344.4047      2562.9279      572.52831     -338.55091    
  46050000   238.296       -416.55603     -336.74759     -416.4933       0              6594.7804      30.923         21.319344      32.655629      21528.487      6665.8961      6939.9226      6178.5226      1095.4185     -226.89027      369.16568    
  46052000   249.63833     -418.30942     -334.70229     -418.24578      0              4599.2486      30.923         21.319344      32.513563      21434.829      6047.0735      3915.038       3835.6342     -1572.8054     -1827.8874     -704.26275    
  46054000   247.28739     -419.59141     -336.77164     -419.53407      0              7542.795       30.923         21.319344      32.380514      21347.115      7162.2188      8609.4675      6856.6986      46.015944     -849.8448      -1675.0861    
  46056000   250.58337     -415.58515     -331.66152     -415.5292       0              7629.6193      30.923         21.319344      32.54574       21456.042      6518.5575      7106.4185      9263.8818      1281.9161     -243.90109      992.58697    
  46058000   246.20782     -416.89629     -334.43808     -416.83256      0              6359.8515      30.923         21.319344      32.507764      21431.006      7394.7494      6914.524       4770.2811      453.15155      396.14638     -457.30667    
  46060000   247.33838     -418.54607     -335.70922     -418.48238      0              6069.7735      30.923         21.319344      32.610837      21498.957      6803.3243      6509.9912      4896.005      -183.87712      363.94393      137.00515    
  46062000   248.02591     -416.97801     -333.9109      -416.92409      0              6281.7113      30.923         21.319344      32.425698      21376.903      6821.8566      6197.8291      5825.4482     -341.45511     -498.10354     -43.641442    
  46064000   243.88707     -417.08531     -335.40435     -417.02212      0              6785.7994      30.923         21.319344      32.386915      21351.335      8156.8766      6783.5048      5417.0168      347.92163      514.07475     -234.06575    
  46066000   240.50531     -415.54341     -334.99505     -415.48379      0              5424.1753      30.923         21.319344      32.482121      21414.1        3687.5519      6317.5508      6267.4232      1136.377      -470.48575     -1093.232     
  46068000   249.18611     -419.30593     -335.85026     -419.25207      0              5447.777       30.923         21.319344      32.605487      21495.431      4572.573       5326.9825      6443.7757     -1291.7999      524.62207     -1996.5066    
  46070000   251.76968     -417.72256     -333.40161     -417.6789       0              5266.8582      30.923         21.319344      32.487787      21417.836      5959.041       3729.9365      6111.5972      1368.5175     -979.12133     -1854.625     
  46072000   247.04338     -415.78553     -333.04748     -415.73076      0              7044.5483      30.923         21.319344      32.389844      21353.266      7332.0674      6496.6341      7304.9435     -327.0327       190.21052      856.1762     
  46074000   246.43944     -412.63371     -330.09793     -412.57009      0              6045.8472      30.923         21.319344      32.512492      21434.123      3858.5558      7668.7257      6610.2601     -263.934        298.10861      24.55602     
  46076000   249.12144     -417.26955     -333.83553     -417.20786      0              6103.0654      30.923         21.319344      32.391292      21354.221      5046.6133      7782.5443      5480.0387     -813.69618      869.47454      1606.3941    
  46078000   238.33694     -415.80968     -335.98753     -415.74782      0              7691.5767      30.923         21.319344      32.499018      21425.24       6573.6262      8089.7118      8411.3921     -624.14701      572.96763      167.14557    
  46080000   243.46643     -415.62787     -334.08779     -415.56585      0              6196.7434      30.923         21.319344      32.503296      21428.061      5919.1356      7602.5267      5068.5678     -19.561327      1202.9069      41.782689    
  46082000   237.21272     -419.10401     -339.65838     -419.05023      0              4566.5818      30.923         21.319344      32.695584      21554.828      3680.5996      4817.3915      5201.7544      53.678093      137.63718      1395.1753    
  46084000   252.01431     -415.21905     -330.81617     -415.16147      0              3754.4302      30.923         21.319344      32.95202       21723.886      3157.1566      5178.2373      2927.8965      595.87487      546.73101     -1244.8476    
  46086000   243.58509     -414.26509     -332.68526     -414.20357      0              5826.5318      30.923         21.319344      32.634553      21514.593      5580.0975      6178.7786      5720.7194     -1384.8363      223.3003       1119.3031    
  46088000   244.37718     -414.74894     -332.90383     -414.68891      0              5688.2034      30.923         21.319344      32.560298      21465.639      3869.135       5993.1574      7202.318       885.35504     -175.17173      1273.2902    
  46090000   241.19342     -417.46278     -336.68396     -417.40631      0              5067.5794      30.923         21.319344      32.565166      21468.849      6613.2615      3310.961       5278.5158      38.541436      1046.9827      251.3479     
  46092000   247.81717     -415.81362     -332.81642     -415.75052      0              4304.0282      30.923         21.319344      32.621119      21505.736      2924.8767      4217.703       5769.5051      1050.705       1882.9396      418.22293    
  46094000   247.20135     -416.19819     -333.40724     -416.13486      0              4147.4472      30.923         21.319344      32.744907      21587.345      5669.288       3499.3899      3273.6637     -564.18819      538.47389      917.95316    
  46096000   248.82052     -416.17443     -332.8412      -416.11509      0              6719.3132      30.923         21.319344      32.832225      21644.91       5914.9104      7442.2474      6800.7818      478.9022       997.24625      635.89977    
  46098000   242.39375     -416.21283     -335.03201     -416.15902      0              5843.8089      30.923         21.319344      32.676635      21542.335      6047.2542      5840.7353      5643.4372     -762.12371     -461.49119     -1003.0022    
  46100000   252.18451     -416.23416     -331.77428     -416.17262      0              5292.2585      30.923         21.319344      32.771026      21604.564      7223.0382      5336.5975      3317.1399      1842.5397     -1014.393       638.73515    
  46102000   240.95739     -417.35452     -336.65475     -417.29191      0              4883.8892      30.923         21.319344      32.649042      21524.145      3655.218       4190.8493      6805.6002      181.57403     -95.056899      453.19378    
  46104000   240.69179     -415.5155      -334.90468     -415.45199      0              6608.7951      30.923         21.319344      32.73608       21581.525      4588.1958      8374.6606      6863.5289      1085.9679      404.87701      476.11994    
  46106000   248.28039     -417.15892     -334.00658     -417.09623      0              6041.8629      30.923         21.319344      32.742183      21585.549      4563.7519      7829.6064      5732.2302     -13.285708      2236.4475     -1100.0154    
  46108000   241.5716      -418.53634     -337.63086     -418.48614      0              6892.9013      30.923         21.319344      32.584275      21481.446      6710.7551      6183.0662      7784.8825      850.8005       15.508208      1147.1181    
  46110000   244.10182     -417.61789     -335.86501     -417.56248      0              7212.0843      30.923         21.319344      32.498001      21424.569      6264.286       7208.5473      8163.4194     -433.60517      993.11561     -437.91456    
  46112000   242.28713     -414.96704     -333.82192     -414.91217      0              7147.6735      30.923         21.319344      32.597189      21489.96       6928.1533      7142.399       7372.4683      264.61693      67.859859      375.95921    
  46114000   245.68516     -416.17305     -333.88988     -416.1205       0              6470.4949      30.923         21.319344      32.676566      21542.29       7073.8315      5235.7806      7101.8725      1576.8948      995.29098      253.46378    
  46116000   240.62266     -417.62056     -337.03289     -417.55746      0              6375.2152      30.923         21.319344      32.590934      21485.837      4206.4804      7252.0356      7667.1296      2152.1665     -322.18891      1392.113     
  46118000   245.01242     -417.74873     -335.69087     -417.69578      0              6229.9323      30.923         21.319344      32.609215      21497.888      5916.1814      6078.4664      6695.1491      1288.1545      1721.8459      1549.48      
  46120000   247.57124     -418.21157     -335.29674     -418.16041      0              6705.145       30.923         21.319344      32.653995      21527.41       6290.4927      6495.6897      7329.2527      1558.736       353.83088     -390.93018    
  46122000   243.09534     -415.91273     -334.49693     -415.84974      0              5690.1601      30.923         21.319344      32.693076      21553.174      4836.9725      4716.9825      7516.5252      148.74688      1386.5277      845.42888    
  46124000   246.98875     -416.21248     -333.49272     -416.14915      0              5492.1307      30.923         21.319344      32.557523      21463.81       4242.1474      7016.5417      5217.7029     -177.42962      109.72875     -771.27706    
ERROR on proc 0: Cannot open restart file restart.lmp.0: Permission denied (../write_restart.cpp:233)
Last command: run             ${nsteps_enhanced_coex_upto} upto
