LAMMPS (23 Jun 2022)
include procedure.lmp
echo both
include		in.partitions
variable        pid world 0
include		in.temp
variable	temperature equal 245
variable        tempDamp equal 0.100 # this is 0.1 ps
include		in.pressure
variable        pressure equal 6079.5
variable        pressureDamp equal 1.0 #this is 1ps

variable	barostat string	   tri
variable	direction string   z
variable	direction_x_bool equal 0
variable	direction_y_bool equal 0
variable	direction_z_bool equal 1

include		in.seed
variable        seed world 745823

units           metal
atom_style	full
box tilt large
read_restart 	restart.lmp.${pid}
read_restart 	restart.lmp.0
Reading restart file ...
  restart file = 23 Jun 2022, LAMMPS = 23 Jun 2022
  restoring atom style full from restart
  triclinic box = (0 0 -0.90002402) to (30.923 21.319344 31.622619) with tilt (-9.137482 1.1356589 -10.688438)
WARNING: Triclinic box skew is large (../domain.cpp:224)
  2 by 1 by 2 MPI processor grid
Summary of lammps deepmd module ...
  >>> Info of deepmd-kit:
  installed to:       /u/sigbjobo/software/DEEPMD_FROM_SOURCE/deepmd-kit/install
  source:             v2.1.3
  source branch:       master
  source commit:      5a32c49
  source commit at:   2022-07-01 09:52:58 +0800
  surpport model ver.:1.1 
  build float prec:   double
  build with tf inc:  /u/sigbjobo/software/DEEPMD_FROM_SOURCE/tensorflow/install/include;/u/sigbjobo/software/DEEPMD_FROM_SOURCE/tensorflow/install/include
  build with tf lib:  /u/sigbjobo/software/DEEPMD_FROM_SOURCE/tensorflow/install/lib/libtensorflow_cc.so;/u/sigbjobo/software/DEEPMD_FROM_SOURCE/tensorflow/install/lib/libtensorflow_framework.so
  set tf intra_op_parallelism_threads: 0
  set tf inter_op_parallelism_threads: 0
  >>> Info of lammps module:
  use deepmd-kit at:  /u/sigbjobo/software/DEEPMD_FROM_SOURCE/deepmd-kit/install
  source:             v2.1.3
  source branch:      master
  source commit:      5a32c49
  source commit at:   2022-07-01 09:52:58 +0800
  build float prec:   double
  build with tf inc:  /u/sigbjobo/software/DEEPMD_FROM_SOURCE/tensorflow/install/include;/u/sigbjobo/software/DEEPMD_FROM_SOURCE/tensorflow/install/include
  build with tf lib:  /u/sigbjobo/software/DEEPMD_FROM_SOURCE/tensorflow/install/lib/libtensorflow_cc.so;/u/sigbjobo/software/DEEPMD_FROM_SOURCE/tensorflow/install/lib/libtensorflow_framework.so
  restoring pair style deepmd from restart
  2592 atoms
Finding 1-2 1-3 1-4 neighbors ...
  special bond factors lj:    0        0        0       
  special bond factors coul:  0        0        0       
     0 = max # of 1-2 neighbors
     0 = max # of 1-3 neighbors
     0 = max # of 1-4 neighbors
     1 = max # of special neighbors
  special bonds CPU = 0.000 seconds
  read_restart CPU = 0.041 seconds
include 	in.setup
variable	out_freq equal 2000
variable	out_freq2 equal 2000

timestep        0.0005

neigh_modify    delay 7 every 1

include         in.deepmd
# This is deepMD model

# create groups ###
#group ox type 2
#group hy type 1

mass 2 15.999
mass 1 1.008

pair_style      deepmd ../graph.pb
pair_coeff      * *

bond_style      none
angle_style     none
dihedral_style  none
improper_style  none
neigh_modify exclude none


neighbor        2.0 bin
neigh_modify    every 50 delay 0 check no

thermo          ${out_freq}
thermo          2000
thermo_style 	custom step temp pe etotal epair emol press lx ly lz vol pxx pyy pzz pxy pxz pyz

restart 	${out_freq} restart.lmp.${pid} restart2.lmp.${pid}
restart 	2000 restart.lmp.${pid} restart2.lmp.${pid}
restart 	2000 restart.lmp.0 restart2.lmp.${pid}
restart 	2000 restart.lmp.0 restart2.lmp.0


timer           timeout 23:50:00 every 1000
New timer settings: style=normal  mode=nosync  timeout=23:50:00


# Set number of time steps
variable 	nsteps_wall		equal	 6000000
variable 	nsteps_enhanced_coex    equal	100000000

variable     nsteps_enhanced_coex_upto equal (${nsteps_wall}+${nsteps_enhanced_coex})
variable     nsteps_enhanced_coex_upto equal (6000000+${nsteps_enhanced_coex})
variable     nsteps_enhanced_coex_upto equal (6000000+100000000)


# Set temperature for first step
if "$(step) < 1  " then    "velocity 	all create ${temperature} ${seed} dist gaussian"


# Always run thermo and barostat


######################################
# Run simulation with wall potential #
######################################
if " $(step) < ${nsteps_wall} " then    "fix             3 all plumed plumedfile plumed.equil.dat outfile plumed.equil.out"   "fix             1 all nph ${direction} ${pressure} ${pressure} ${pressureDamp}"   "fix             2 all temp/csvr ${temperature} ${temperature} ${tempDamp} ${seed}"   "run             ${nsteps_wall} upto"
if " $(step) == ${nsteps_wall} " then    "unfix 3"   "unfix 1"   "unfix 2"


############################
# Run enhanced coesistence #
############################
if "$(step) == ${nsteps_wall}" then    "fix             3 all plumed plumedfile plumed.start.dat outfile plumed.out" else    "fix             3 all plumed plumedfile plumed.dat outfile plumed.out"
fix             3 all plumed plumedfile plumed.dat outfile plumed.out

if "$(step) < ${nsteps_enhanced_coex_upto} && $(step) >= ${nsteps_wall} " then    "include         in.dump"    "fix             1 all nph ${direction} ${pressure} ${pressure} ${pressureDamp}"   "fix             2 all temp/csvr ${temperature} ${temperature} ${tempDamp} ${seed}"   "run             ${nsteps_enhanced_coex_upto} upto"    "unfix 3"   "unfix 1"   "unfix 2"
include         in.dump
dump            myDump all atom ${out_freq2} dump.water.${pid}
dump            myDump all atom 2000 dump.water.${pid}
dump            myDump all atom 2000 dump.water.0
dump            myDump2 all dcd ${out_freq2} dump.${pid}.dcd
dump            myDump2 all dcd 2000 dump.${pid}.dcd
dump            myDump2 all dcd 2000 dump.0.dcd
dump_modify     myDump append yes
dump_modify     myDump2 append yes

fix             1 all nph ${direction} ${pressure} ${pressure} ${pressureDamp}
fix             1 all nph z ${pressure} ${pressure} ${pressureDamp}
fix             1 all nph z 6079.5 ${pressure} ${pressureDamp}
fix             1 all nph z 6079.5 6079.5 ${pressureDamp}
fix             1 all nph z 6079.5 6079.5 1
fix             2 all temp/csvr ${temperature} ${temperature} ${tempDamp} ${seed}
fix             2 all temp/csvr 245 ${temperature} ${tempDamp} ${seed}
fix             2 all temp/csvr 245 245 ${tempDamp} ${seed}
fix             2 all temp/csvr 245 245 0.1 ${seed}
fix             2 all temp/csvr 245 245 0.1 745823
run             ${nsteps_enhanced_coex_upto} upto
run             106000000 upto

CITE-CITE-CITE-CITE-CITE-CITE-CITE-CITE-CITE-CITE-CITE-CITE-CITE

Your simulation uses code contributions which should be cited:

- USER-DEEPMD package:

@article{Wang_ComputPhysCommun_2018_v228_p178,
  author = {Wang, Han and Zhang, Linfeng and Han, Jiequn and E, Weinan},
  doi = {10.1016/j.cpc.2018.03.016},
  url = {https://doi.org/10.1016/j.cpc.2018.03.016},
  year = 2018,
  month = {jul},
  publisher = {Elsevier {BV}},
  volume = 228,
  journal = {Comput. Phys. Commun.},
  title = {{DeePMD-kit: A deep learning package for many-body potential energy representation and molecular dynamics}},
  pages = {178--184}
}

CITE-CITE-CITE-CITE-CITE-CITE-CITE-CITE-CITE-CITE-CITE-CITE-CITE

Generated 0 of 1 mixed pair_coeff terms from geometric mixing rule
Neighbor list info ...
  update every 50 steps, delay 0 steps, check no
  max neighbors/atom: 2000, page size: 100000
  master list distance cutoff = 8
  ghost atom cutoff = 8
  binsize = 4, bins = 11 9 9
  1 neighbor lists, perpetual/occasional/extra = 1 0 0
  (1) pair deepmd, perpetual
      attributes: full, newton on
      pair build: full/bin
      stencil: full/bin/3d
      bin: standard
Per MPI rank memory allocation (min/avg/max) = 6.237 | 6.237 | 6.237 Mbytes
   Step          Temp          PotEng         TotEng         E_pair         E_mol          Press            Lx             Ly             Lz           Volume          Pxx            Pyy            Pzz            Pxy            Pxz            Pyz      
 103007000   244.1331      -419.91182     -338.14846     -419.91182      0              5111.9587      30.923         21.319344      32.522643      21440.815      6853.352       4850.3459      3632.1781     -1998.794       582.68131      873.3489     
 103008000   243.86284     -419.95429     -338.28144     -419.96281      0              7438.4325      30.923         21.319344      32.535887      21449.546      8283.666       8163.3422      5868.2894      1479.1317     -884.55712      262.37371    
 103010000   244.7579      -418.80826     -336.83564     -418.82494      0              3336.8804      30.923         21.319344      32.593643      21487.622      1527.9566      3331.7127      5150.9721      1818.5251      243.2701      -1452.0369    
 103012000   246.39446     -420.77323     -338.25251     -420.7818       0              4819.0359      30.923         21.319344      32.520731      21439.554      4161.5252      4711.4297      5584.1529     -1242.9844      396.80767      1631.5332    
 103014000   245.82289     -419.44826     -337.11897     -419.44303      0              5939.0104      30.923         21.319344      32.609769      21498.254      4637.0811      6038.4514      7141.4988      1225.7306     -202.69635     -708.48738    
 103016000   251.74761     -420.08695     -335.7734      -420.09594      0              5837.5203      30.923         21.319344      32.852768      21658.453      4789.2106      7504.3554      5218.9947      515.99909     -1135.7461     -572.12725    
 103018000   244.4803      -418.57632     -336.69667     -418.58787      0              4373.9818      30.923         21.319344      32.71379       21566.83       1921.4528      5682.6519      5517.8407      1524.8611     -307.61493      566.91922    
 103020000   246.84239     -417.81159     -335.14086     -417.8234       0              5925.7653      30.923         21.319344      32.808073      21628.987      4571.1501      6192.479       7013.6667      544.20129      1024.1102      1356.6089    
 103022000   244.90288     -418.63927     -336.61811     -418.63899      0              6001.3932      30.923         21.319344      32.60546       21495.413      6456.6625      6526.0418      5021.4754     -1384.8328     -1644.5538     -368.50976    
 103024000   250.60428     -421.46544     -337.5348      -421.48032      0              6198.995       30.923         21.319344      32.615937      21502.32       5255.7966      7394.7605      5946.4279     -1428.3948      232.74642      852.03661    
 103026000   239.2908      -418.54508     -338.40347     -418.55626      0              7162.3672      30.923         21.319344      32.695522      21554.787      6477.0616      7208.7138      7801.3262      1661.9065     -2377.3557      1821.5819    
 103028000   240.93274     -420.41756     -339.72605     -420.44689      0              5501.516       30.923         21.319344      32.563747      21467.913      4432.9278      4891.0692      7180.5509     -216.49722      358.86585     -668.65701    
 103030000   242.13525     -421.20556     -340.11131     -421.2057       0              7068.8831      30.923         21.319344      32.536927      21450.232      5955.2822      8174.2647      7077.1025      2344.5405     -1115.0472      43.971173    
 103032000   251.8932      -417.39979     -333.03748     -417.42161      0              5134.8813      30.923         21.319344      32.592217      21486.682      6929.6025      4522.2244      3952.817      -58.908146     -534.57477     -620.30746    
 103034000   249.72418     -420.5458      -336.90992     -420.53099      0              5178.6145      30.923         21.319344      32.555118      21462.224      4775.0046      6535.3612      4225.4776      905.83445      121.54942     -924.69763    
 103036000   247.86743     -423.05557     -340.04154     -423.06773      0              8096.0629      30.923         21.319344      32.464016      21402.164      8140.655       8058.6811      8088.8527      1354.8475      567.50807     -447.38604    
 103038000   249.68655     -418.35215     -334.72887     -418.36537      0              7617.3688      30.923         21.319344      32.400848      21360.52       7755.1766      7294.4523      7802.4775     -385.86212      421.98213      1335.3194    
 103040000   244.90519     -419.62202     -337.60008     -419.64068      0              4995.2731      30.923         21.319344      32.562791      21467.283      5442.7768      6523.1649      3019.8774     -792.48929     -647.1817      -153.49307    
 103042000   243.6881      -421.76212     -340.1478      -421.77854      0              6433.3776      30.923         21.319344      32.600062      21491.854      6450.1934      7616.8144      5233.1252      577.09751     -939.03244      1773.3327    
 103044000   244.69391     -421.00587     -339.05469     -421.01517      0              5817.9746      30.923         21.319344      32.466419      21403.749      3051.8255      5462.3141      8939.7842      1435.4613      534.45261      1115.2246    
 103046000   249.54923     -420.7876      -337.21031     -420.81116      0              7259.3751      30.923         21.319344      32.410645      21366.979      7541.1032      7930.4713      6306.5508      1085.4222      79.431455     -699.23877    
 103048000   238.85773     -420.59649     -340.59992     -420.60889      0              5741.8764      30.923         21.319344      32.463496      21401.822      4221.7883      5792.1486      7211.6923     -220.68444     -1625.5342     -729.36291    
 103050000   239.22168     -417.51259     -337.39413     -417.52548      0              5937.25        30.923         21.319344      32.584118      21481.343      6762.3792      4009.5682      7039.8025     -275.9906      -505.85629      778.07116    
 103052000   244.08309     -422.00078     -340.25417     -422.03163      0              5894.6975      30.923         21.319344      32.494728      21422.412      6558.7505      6168.0407      4957.3014      898.22589     -733.60738      139.14925    
 103054000   242.99371     -419.34622     -337.96445     -419.37148      0              5263.568       30.923         21.319344      32.585973      21482.566      6213.663       4603.5469      4973.494       849.48695     -805.42256     -87.919385    
 103056000   246.34099     -417.66833     -335.16553     -417.6647       0              8326.4363      30.923         21.319344      32.585899      21482.517      8718.7707      9335.1109      6925.4274      768.93944     -1346.3233     -179.32083    
 103058000   254.58631     -419.68581     -334.42154     -419.72158      0              5870.8563      30.923         21.319344      32.463225      21401.644      5657.728       6063.2377      5891.6033     -1196.8052     -197.71469      134.69754    
 103060000   247.32581     -421.71395     -338.88131     -421.73887      0              4834.9618      30.923         21.319344      32.628572      21510.649      4344.6677      7260.7247      2899.4931      753.67902      203.1818       453.7945     
 103062000   247.23679     -419.33928     -336.53646     -419.36078      0              8855.5836      30.923         21.319344      32.58273       21480.428      8344.8496      9783.2698      8438.6312     -128.68829     -603.44462      466.93665    
 103064000   238.1679      -420.91372     -341.14818     -420.92087      0              6426.3343      30.923         21.319344      32.73804       21582.817      5667.8449      8638.4836      4972.6744     -670.43254      1591.8902     -951.52634    
 103066000   239.48133     -418.00671     -337.80129     -418.029        0              6140.2875      30.923         21.319344      32.663842      21533.902      3938.177       7365.5116      7117.1737      64.205421      2271.7842     -733.54415    
 103068000   246.54506     -421.67495     -339.10379     -421.67705      0              5371.6954      30.923         21.319344      32.640161      21518.29       4300.3782      5379.863       6434.845      -556.99023     -84.284797      1148.5455    
 103070000   246.09456     -417.03589     -334.61561     -417.02687      0              5363.9816      30.923         21.319344      32.722041      21572.27       5929.1176      4964.4541      5198.3731      1042.4923     -780.22441     -2779.8205    
 103072000   237.28503     -420.67848     -341.20863     -420.67658      0              4985.2817      30.923         21.319344      32.764249      21600.096      4437.7018      4607.1331      5911.0103     -1066.4581      107.09625     -469.41811    
 103074000   249.29378     -421.23153     -337.7398      -421.24742      0              6032.7117      30.923         21.319344      32.629979      21511.577      4278.0756      7189.141       6630.9184      40.186842      1898.5114     -880.57667    
 103076000   237.71755     -420.1438      -340.5291      -420.15024      0              7784.214       30.923         21.319344      32.469502      21405.781      7717.5587      8102.7122      7532.371      -1394.7186     -649.18638      350.22377    
 103078000   238.73738     -421.26566     -341.3094      -421.29414      0              6306.172       30.923         21.319344      32.63207       21512.956      6550.8575      7295.4922      5072.1661     -281.80814      1431.3209     -1300.4985    
 103080000   240.87508     -420.84303     -340.17083     -420.84583      0              5870.3782      30.923         21.319344      32.72187       21572.157      7560.6389      5177.5985      4872.8971      302.43322      410.1977      -117.08214    
 103082000   238.0613      -417.70545     -337.97562     -417.71503      0              5127.8293      30.923         21.319344      32.787523      21615.439      6464.3175      3985.9558      4933.2145      1120.259      -1649.5212      1273.532     
 103084000   245.77306     -424.42089     -342.10828     -424.44371      0              7802.6734      30.923         21.319344      32.55892       21464.731      7779.0912      6915.0963      8713.8326      529.4355      -382.50487      525.74409    
 103086000   241.36284     -422.30581     -341.47025     -422.3309       0              4151.1538      30.923         21.319344      32.621349      21505.888      4004.3424      3829.8319      4619.2872      1628.4506     -869.64803     -115.99285    
 103088000   242.38573     -421.65498     -340.47684     -421.66792      0              5731.9963      30.923         21.319344      32.767179      21602.027      5555.7843      7388.0447      4252.1601      1417.6092      375.84049      115.19906    
 103090000   250.56419     -421.23953     -337.32231     -421.22812      0              5329.8979      30.923         21.319344      32.868947      21669.119      4853.9261      5558.3064      5577.4611      281.29829     -1238.8492      809.41242    
 103092000   245.6742      -420.18728     -337.90779     -420.17426      0              4055.9717      30.923         21.319344      32.7532        21592.812      4022.8731      3919.507       4225.5352     -242.52485     -46.732028      301.11414    
 103094000   249.3624      -421.62784     -338.11312     -421.63632      0              5766.7334      30.923         21.319344      32.605214      21495.251      7056.4214      4442.5329      5801.2458      411.44747      415.44705     -1124.4627    
 103096000   237.50467     -422.30587     -342.76246     -422.33095      0              6610.0236      30.923         21.319344      32.536448      21449.916      6887.8874      6668.3197      6273.8637      1111.4005      1150.5904     -1264.0972    
 103098000   246.06156     -420.86512     -338.4559      -420.87689      0              6146.6569      30.923         21.319344      32.627109      21509.685      6930.8407      6365.9232      5143.2069     -1056.1783      585.87988     -700.29773    
 103100000   243.69844     -419.02355     -337.40577     -419.04697      0              6631.3074      30.923         21.319344      32.688263      21550.001      7177.0013      5766.8714      6950.0497      890.07611     -1612.7421     -568.99774    
 103102000   248.8079      -422.58139     -339.25238     -422.6041       0              7744.2547      30.923         21.319344      32.520282      21439.259      6304.4219      7065.2982      9863.0441      973.19445      1418.9609      258.51656    
 103104000   243.59535     -420.73786     -339.15461     -420.76469      0              6098.1743      30.923         21.319344      32.563115      21467.497      7020.8585      5889.7893      5383.875      -895.93503     -737.39659     -1452.5959    
 103106000   244.45896     -420.13582     -338.26333     -420.16061      0              6655.3204      30.923         21.319344      32.542666      21454.015      6944.4218      6085.4858      6936.0537      665.58508     -1259.2838     -213.24247    
 103108000   245.65619     -419.99861     -337.72515     -420.02577      0              6923.0347      30.923         21.319344      32.412121      21367.953      7052.1146      5712.8787      8004.1107     -393.54457     -753.45102     -626.50146    
 103110000   239.64595     -418.6453      -338.38475     -418.644        0              6496.4672      30.923         21.319344      32.611449      21499.361      7393.0828      7511.7868      4584.532       510.56451     -399.12978     -241.28728    
 103112000   243.21401     -419.73934     -338.2838      -419.73034      0              6431.9041      30.923         21.319344      32.492858      21421.179      6280.1224      9361.7729      3653.817      -979.90202     -1030.0678      133.97325    
 103114000   243.14618     -418.49704     -337.06421     -418.48972      0              7783.9499      30.923         21.319344      32.530941      21446.286      7332.1513      6795.8095      9223.889       900.59201     -2589.5627     -2561.8856    
 103116000   244.05037     -418.09678     -336.36113     -418.09715      0              5798.065       30.923         21.319344      32.479959      21412.676      5646.6778      6640.4876      5107.0296     -1595.6652     -543.60188     -2201.9285    
 103118000   238.10639     -417.41264     -337.6677      -417.42116      0              7418.3707      30.923         21.319344      32.639846      21518.082      8175.4205      8101.51        5978.1815      1457.4558     -252.68986     -37.79647     
 103120000   245.85461     -420.71722     -338.3773      -420.74057      0              6735.9233      30.923         21.319344      32.585301      21482.123      4633.3442      7530.9467      8043.4791     -9.2157545      1132.5051      693.28603    
 103122000   244.97687     -417.17184     -335.12589     -417.1544       0              7531.1325      30.923         21.319344      32.572804      21473.884      8599.4873      7014.6747      6979.2356     -585.76021     -1161.2065      2139.1837    
 103124000   242.50128     -420.88546     -339.66862     -420.88607      0              5525.3215      30.923         21.319344      32.754163      21593.446      4316.632       5744.7588      6514.5739     -88.878723      859.37155     -794.17445    
 103126000   246.90205     -418.60025     -335.90954     -418.60617      0              5953.6761      30.923         21.319344      32.721335      21571.804      5158.0248      8199.1548      4503.8487      358.844        133.71261     -1392.3289    
 103128000   246.02381     -420.31373     -337.91715     -420.33276      0              6484.988       30.923         21.319344      32.581283      21479.474      6627.1478      6441.7028      6386.1135     -82.635866      667.98601     -727.42733    
 103130000   243.96611     -421.22286     -339.51543     -421.23485      0              5812.7061      30.923         21.319344      32.722197      21572.373      4930.2466      7007.4648      5500.4068      237.83798     -145.65609      1466.3211    
 103132000   249.31774     -417.33858     -333.83882     -417.34234      0              5798.1661      30.923         21.319344      32.528733      21444.83       6077.7171      6692.3262      4624.4549     -483.09418      709.90384     -297.56229    
 103134000   246.54926     -420.12106     -337.5485      -420.14947      0              8342.4762      30.923         21.319344      32.467469      21404.441      7389.0837      9038.9361      8599.4088      1304.0792      1328.8267     -423.59763    
 103136000   249.12205     -420.27893     -336.84471     -420.30116      0              7489.009       30.923         21.319344      32.430132      21379.827      6705.7792      7331.0689      8430.179       241.69253     -1697.0172      147.04415    
 103138000   241.32017     -422.5291      -341.70783     -422.54935      0              6531.6737      30.923         21.319344      32.34327       21322.562      8008.8866      6378.544       5207.5905      895.7548      -322.58009     -1130.5501    
 103140000   247.7265      -418.3121      -335.34527     -418.33277      0              6554.5628      30.923         21.319344      32.428112      21378.495      6475.4098      6142.0943      7046.1844      779.07328     -1445.4782      545.04521    
 103142000   244.23793     -420.84373     -339.04526     -420.86686      0              5926.5739      30.923         21.319344      32.463337      21401.717      6225.372       6428.8703      5125.4793      2783.2854      667.94914     -309.95029    
 103144000   243.33746     -419.17665     -337.67976     -419.19635      0              7372.1596      30.923         21.319344      32.537475      21450.593      7632.0216      6545.3566      7939.1008      1532.2544     -406.02726     -1618.0941    
 103146000   239.63926     -423.40156     -343.14325     -423.42633      0              6892.5069      30.923         21.319344      32.584012      21481.273      6834.7312      7667.7142      6175.0751     -114.56142      408.50899     -1032.8911    
 103148000   241.30415     -419.63148     -338.81558     -419.64758      0              4906.1816      30.923         21.319344      32.717922      21569.554      6988.8933      3105.3747      4624.2768     -1798.4727     -3.3812247      305.97775    
 103150000   244.93885     -420.68265     -338.64943     -420.69275      0              5199.2839      30.923         21.319344      32.608565      21497.46       5506.2758      4256.7399      5834.836      -670.38397      997.4116      -1640.5192    
 103152000   244.24135     -419.78073     -337.98112     -419.80134      0              5711.543       30.923         21.319344      32.583129      21480.691      6077.4956      4988.2254      6068.9081      938.94736     -309.8749      -909.94727    
 103154000   241.78608     -420.16052     -339.1832      -420.18434      0              5183.3183      30.923         21.319344      32.557252      21463.631      2930.9879      5672.3784      6946.5887     -1308.7733      1315.4131     -1878.9538    
 103156000   250.23819     -417.67639     -333.86836     -417.71104      0              5483.736       30.923         21.319344      32.494514      21422.271      6608.2212      5216.4443      4626.5424      302.60202     -134.6093       1077.9278    
 103158000   245.25805     -419.75614     -337.61602     -419.78102      0              8431.2522      30.923         21.319344      32.444099      21389.034      8197.8076      9024.8813      8071.0678      1149.4238     -1804.329       117.83158    
 103160000   242.12982     -419.8868      -338.79437     -419.92005      0              7038.5714      30.923         21.319344      32.543273      21454.416      5779.319       7899.1669      7437.2283     -575.30946      1829.8474     -1632.016     
 103162000   243.41315     -418.67804     -337.1558      -418.70669      0              7177.6254      30.923         21.319344      32.421954      21374.435      6723.9843      7715.3473      7093.5446      584.57802     -1807.2412     -480.84719    
 103164000   246.25624     -421.86466     -339.39024     -421.87911      0              7605.9614      30.923         21.319344      32.544944      21455.517      7322.6458      7442.8208      8052.4175     -1419.1236      15.747607      831.62516    
 103166000   248.41804     -420.82686     -337.62842     -420.83806      0              6657.2118      30.923         21.319344      32.601415      21492.746      6966.1569      6632.3019      6373.1765     -364.1823      -1155.2334     -1802.7064    
 103168000   244.98293     -422.20799     -340.16002     -422.23135      0              4580.1235      30.923         21.319344      32.57557       21475.707      5220.0118      4925.7038      3594.655       2210.3687     -1484.2136      1325.5661    
 103170000   240.25554     -420.11797     -339.65326     -420.13071      0              5003.7442      30.923         21.319344      32.542527      21453.923      5235.3664      3723.2934      6052.5728     -53.970042     -619.1609       649.129      
 103172000   243.25712     -417.73205     -336.26207     -417.7514       0              4990.7424      30.923         21.319344      32.537205      21450.415      5696.5742      3874.7607      5400.8922      644.37161      274.07817     -942.21994    
 103174000   233.98809     -419.62952     -341.26386     -419.65624      0              7769.6419      30.923         21.319344      32.324289      21310.049      8222.3048      7438.5946      7648.0264     -693.7894       1375.6612     -179.50161    
 103176000   243.52824     -419.16573     -337.60494     -419.18615      0              6580.5243      30.923         21.319344      32.456158      21396.984      6704.0425      6792.5214      6245.009       48.126564      11.593561     -452.57168    
 103178000   242.00797     -422.38632     -341.3347      -422.41003      0              5813.1586      30.923         21.319344      32.350635      21327.418      5419.3893      4866.3093      7153.7772      373.49857      1177.976       1014.9438    
 103180000   247.32644     -421.62962     -338.79678     -421.64903      0              7697.8135      30.923         21.319344      32.614468      21501.352      8653.4884      7795.4861      6644.466       482.98941      1312.5957     -458.22298    
 103182000   243.69666     -421.64729     -340.0301      -421.67737      0              4726.8148      30.923         21.319344      32.570715      21472.507      5187.6907      4739.8783      4252.8755      1167.777      -725.36579     -278.23974    
 103184000   240.27545     -420.08291     -339.61153     -420.10311      0              7694.2993      30.923         21.319344      32.580421      21478.906      6293.859       8923.0453      7865.9935     -364.10676      11.442585      705.11502    
 103186000   241.68065     -420.51026     -339.56826     -420.58608      0              5293.2684      30.923         21.319344      32.445138      21389.719      4977.6458      7570.4967      3331.6627      1.3378738      280.49922     -2076.9431    
 103188000   240.95626     -421.32383     -340.62444     -421.35389      0              8438.5011      30.923         21.319344      32.5717        21473.156      9328.6488      8384.4692      7602.3853     -20.974        -163.51766     -954.18907    
 103190000   243.0158      -419.0349      -337.64574     -419.05197      0              6408.9582      30.923         21.319344      32.584776      21481.777      5848.8028      7693.0034      5685.0683      111.95893      1315.5586     -346.55575    
 103192000   241.82173     -421.50215     -340.5129      -421.51861      0              6374.3803      30.923         21.319344      32.517313      21437.301      8504.9226      5863.7337      4754.4845     -201.59366     -78.861083     -1393.1031    
 103194000   242.55024     -421.18273     -339.94949     -421.19845      0              7167.3886      30.923         21.319344      32.600105      21491.883      7979.4584      7883.4626      5639.2448      1760.9459     -947.56422     -640.8091     
 103196000   240.0962      -421.46881     -341.05746     -421.4842       0              4906.7016      30.923         21.319344      32.578603      21477.707      4186.269       3888.5037      6645.332       814.59406     -153.99479     -2251.3252    
 103198000   241.27305     -416.54011     -335.73462     -416.53899      0              5680.3987      30.923         21.319344      32.494286      21422.12       5273.4907      5727.8371      6039.8683      682.52756      319.13262     -709.72763    
 103200000   242.52953     -418.51637     -337.29007     -418.51832      0              6854.1257      30.923         21.319344      32.537184      21450.401      6299.8938      7602.3933      6660.0899     -1280.6618      468.38514     -1662.6418    
 103202000   242.83565     -418.48648     -337.15766     -418.51591      0              4526.9252      30.923         21.319344      32.47449       21409.069      4721.33        4109.5106      4749.9349      2100.9672     -1149.158       286.76874    
 103204000   247.17997     -419.82042     -337.03662     -419.83817      0              4028.2211      30.923         21.319344      32.509893      21432.409      4267.416       2764.652       5052.5955      1851.449      -1771.787       1334.9226    
 103206000   246.83726     -418.76572     -336.0967      -418.78119      0              5462.0664      30.923         21.319344      32.520813      21439.609      6813.3547      5760.8692      3811.9754      795.82676     -743.34798     -731.51999    
 103208000   254.79273     -423.01547     -337.68207     -423.07422      0              6986.9455      30.923         21.319344      32.400754      21360.459      7328.1441      5249.2387      8383.4535      605.90885     -1514.9771      1657.4453    
 103210000   238.12168     -423.24329     -343.49324     -423.26326      0              6030.2652      30.923         21.319344      32.501477      21426.861      6010.4628      6471.2133      5609.1194     -175.27673     -890.58181      6.9825607    
 103212000   238.18148     -420.51276     -340.74268     -420.51644      0              5240.4247      30.923         21.319344      32.450556      21393.291      4825.4312      6354.6601      4541.1829      1399.0617      54.395702     -2745.2469    
 103214000   247.14065     -420.10156     -337.33094     -420.12336      0              6625.0161      30.923         21.319344      32.586381      21482.835      4989.5973      8254.1238      6631.3273      644.50215      71.881289      1526.2706    
 103216000   243.34853     -419.8867      -338.3861      -419.89533      0              7063.9359      30.923         21.319344      32.562277      21466.944      6042.5362      8479.245       6670.0266     -348.37053     -190.2317       316.84854    
 103218000   246.66309     -420.32654     -337.71586     -420.35724      0              4835.4187      30.923         21.319344      32.572566      21473.727      5561.4095      5216.6498      3728.1967      811.7096       1544.4798      450.92469    
 103220000   247.38136     -419.96628     -337.11503     -420.0008       0              5263.002       30.923         21.319344      32.836149      21647.497      4298.1081      6469.608       5021.29        1048.4555      88.157808      426.25278    
 103222000   235.8007      -421.22964     -342.25692     -421.24776      0              6082.1297      30.923         21.319344      32.480567      21413.076      5991.3341      6544.9054      5710.1496      1755.2259      209.16871      1179.7616    
 103224000   245.7094      -417.64001     -335.34873     -417.65547      0              7096.1979      30.923         21.319344      32.427265      21377.936      6080.2745      8524.6825      6683.6369      675.26281     -270.74952      275.70747    
 103226000   238.76915     -417.34423     -337.37733     -417.33747      0              9038.4054      30.923         21.319344      32.540036      21452.282      8084.9704      9847.1295      9183.1165     -398.19225     -191.79684      358.21838    
 103228000   245.08832     -419.95719     -337.87392     -419.98181      0              7022.1853      30.923         21.319344      32.603649      21494.219      7965.812       7834.8729      5265.8711      951.94617     -2218.2089      87.915345    
 103230000   245.49718     -419.64556     -337.42536     -419.65975      0              5954.8317      30.923         21.319344      32.618366      21503.921      5179.0976      6342.9023      6342.4952     -562.54382     -1475.9206     -797.56874    
 103232000   242.10456     -417.82156     -336.73759     -417.84487      0              4856.9774      30.923         21.319344      32.55433       21461.705      3900.4231      5899.9297      4770.5793      1113.6588     -1027.4319      567.5103     
 103234000   246.73006     -418.19905     -335.56593     -418.21306      0              7206.3126      30.923         21.319344      32.397765      21358.488      8587.1202      6492.4588      6539.3588      1673.5324     -1769.5788     -272.57218    
 103236000   251.70635     -419.87418     -335.57444     -419.91486      0              7432.9885      30.923         21.319344      32.289201      21286.916      6473.2377      9514.273       6311.4548      2880.693      -2449.9806     -1564.1672    
 103238000   252.24934     -418.74275     -334.26116     -418.74475      0              5968.0693      30.923         21.319344      32.301704      21295.159      5710.0742      6949.2789      5244.8546     -296.2488      -526.21876     -625.55338    
 103240000   247.47489     -419.94663     -337.06406     -419.96936      0              5422.6768      30.923         21.319344      32.483042      21414.708      5989.8157      6204.3844      4073.8303      1702.5671     -383.31779     -31.3087      
 103242000   245.01496     -421.76058     -339.70187     -421.80029      0              4901.3774      30.923         21.319344      32.323487      21309.52       4389.6459      4771.2922      5543.1941     -693.33065     -452.55215      41.224726    
 103244000   240.91829     -419.89576     -339.20909     -419.90563      0              6028.1257      30.923         21.319344      32.482111      21414.094      6185.8236      6752.3429      5146.2106      426.99911      460.29139     -1705.4489    
 103246000   249.09902     -422.88159     -339.45509     -422.89354      0              8050.3476      30.923         21.319344      32.327805      21312.366      7452.9004      8371.9747      8326.1677      8.8336707     -1107.8012     -601.00839    
 103248000   255.7479      -423.05077     -337.39746     -423.07539      0              5896.2941      30.923         21.319344      32.501275      21426.728      7054.2511      5047.5174      5587.1138     -29.029504     -1040.4466     -2286.3787    
 103250000   251.4688      -419.76318     -335.543       -419.76564      0              6272.3929      30.923         21.319344      32.608008      21497.092      6250.3291      9037.3684      3529.4811     -1913.6373      26.977351     -2477.5489    
 103252000   245.70611     -416.43287     -334.1427      -416.43731      0              5168.474       30.923         21.319344      32.64272       21519.977      6967.3374      4596.5559      3941.5289     -521.22932      813.78247     -1373.8404    
 103254000   246.74848     -418.62818     -335.9889      -418.63017      0              6756.6834      30.923         21.319344      32.638606      21517.265      6854.7865      7340.115       6075.1488      2032.1528     -927.44058     -273.82202    
 103256000   243.38923     -419.9116      -338.39737     -419.92856      0              5309.8932      30.923         21.319344      32.47186       21407.336      7459.5981      4699.0866      3770.9949      1165.2093      59.379122     -537.67566    
 103258000   252.58202     -418.20169     -333.60868     -418.23127      0              7262.2009      30.923         21.319344      32.400831      21360.51       9725.9351      7070.7807      4989.8868     -1035.124       700.7153       509.62339    
 103260000   242.6133      -420.62027     -339.36591     -420.63192      0              5752.867       30.923         21.319344      32.43504       21383.062      5791.1905      4711.4511      6755.9593      2790.7561      608.60269     -221.88015    
 103262000   244.81227     -419.17897     -337.18815     -419.19113      0              4784.4239      30.923         21.319344      32.525402      21442.634      3227.9908      5884.3688      5240.9123      124.79397      425.9146      -1091.0518    
 103264000   237.10905     -417.51229     -338.10138     -417.51016      0              6499.8667      30.923         21.319344      32.358603      21332.671      5967.6941      7779.7149      5752.1911     -2379.7805      951.33135      383.34644    
 103266000   242.40385     -421.36808     -340.18387     -421.3672       0              6598.7822      30.923         21.319344      32.355602      21330.692      4871.2048      7914.6568      7010.4848      1055.3326      970.38549      1393.1408    
 103268000   236.59422     -417.66431     -338.42582     -417.68121      0              5529.2259      30.923         21.319344      32.384835      21349.964      5148.0361      6743.2515      4696.3901     -855.37958     -177.76839     -776.48755    
 103270000   249.9612      -417.56472     -333.84946     -417.5857       0              6607.4211      30.923         21.319344      32.343921      21322.991      6248.0833      7018.415       6555.765       1276.3675      256.28654     -647.42944    
 103272000   245.88408     -419.52264     -337.17286     -419.55802      0              7087.9215      30.923         21.319344      32.287364      21285.706      5863.9685      8723.0454      6676.7506      557.7424       629.90864     -2917.9613    
 103274000   249.98841     -418.92479     -335.20041     -418.93656      0              4404.2974      30.923         21.319344      32.506486      21430.163      5775.8059      4464.1119      2972.9744      702.03107     -609.45331     -1128.5961    
 103276000   243.47141     -422.06273     -340.52098     -422.11624      0              5925.1642      30.923         21.319344      32.436828      21384.241      7094.1458      5380.9498      5300.3971      1041.0049      1200.696      -1032.2654    
 103278000   239.58396     -420.79171     -340.55192     -420.81957      0              5514.3052      30.923         21.319344      32.361581      21334.634      4818.6007      4675.8973      7048.4176     -251.14344     -919.51879     -683.79247    
 103280000   247.43362     -419.64822     -336.77948     -419.65812      0              5268.0769      30.923         21.319344      32.384276      21349.596      3869.0184      8069.9848      3865.2275      222.00506     -193.69045     -1109.3186    
 103282000   242.23799     -417.84111     -336.71245     -417.83434      0              5698.2123      30.923         21.319344      32.356506      21331.288      7260.339       4448.0128      5386.2851     -986.09999      623.92475      74.814305    
 103284000   246.36465     -419.66617     -337.15543     -419.66104      0              6053.4686      30.923         21.319344      32.265197      21271.092      7233.3017      5800.7238      5126.3802      759.89129     -74.825641     -267.75379    
 103286000   246.11984     -417.90907     -335.48033     -417.93059      0              4150.3801      30.923         21.319344      32.380354      21347.01       2171.1879      6444.1928      3835.7597     -152.03654      1171.3701     -212.69293    
 103288000   249.79041     -420.89333     -337.23527     -420.89649      0              8399.2611      30.923         21.319344      32.441344      21387.218      9357.3076      8202.3815      7638.0942     -1870.8836      2110.9943     -265.5916     
 103290000   242.73343     -417.64412     -336.34953     -417.64011      0              4942.753       30.923         21.319344      32.363539      21335.925      3127.4366      6501.8416      5198.9809      404.47789      2094.4623     -1539.4923    
 103292000   241.70249     -418.36874     -337.41943     -418.3912       0              6396.5345      30.923         21.319344      32.252788      21262.911      6280.3815      6356.458       6552.7639      454.03541      305.05656      17.569139    
 103294000   240.07789     -420.28643     -339.88121     -420.3015       0              6610.7425      30.923         21.319344      32.273266      21276.411      6886.7463      5287.1742      7658.307       352.85554      1392.0237      768.82001    
 103296000   246.00558     -417.97835     -335.58788     -417.98168      0              5726.766       30.923         21.319344      32.35843       21332.556      6603.3106      5109.8201      5467.1672     -454.23804     -643.50301     -1006.8786    
 103298000   249.49787     -419.28755     -335.72746     -419.30723      0              7460.6518      30.923         21.319344      32.261721      21268.8        9289.399       7566.0404      5526.5159      57.217661      524.63254     -376.41708    
 103300000   245.12053     -421.70105     -339.60699     -421.74813      0              6381.212       30.923         21.319344      32.266453      21271.92       6200.6489      6783.5963      6159.3909     -650.84362     -1496.2205     -528.98041    
 103302000   255.44067     -420.07021     -334.5198      -420.15139      0              7164.7715      30.923         21.319344      32.354577      21330.016      6092.111       6734.7255      8667.4779      1638.4242     -31.287781      1910.9821    
 103304000   242.21034     -421.29601     -340.17661     -421.35624      0              6951.6073      30.923         21.319344      32.377495      21345.125      8356.2299      7117.7087      5380.8834      2698.2519     -477.59772      1665.7714    
 103306000   243.46037     -421.40553     -339.86748     -421.41346      0              5302.9211      30.923         21.319344      32.427775      21378.272      4871.3594      5685.9119      5351.4921      1029.0179     -604.02789      550.57611    
 103308000   246.0097      -421.53769     -339.14583     -421.56239      0              5417.3847      30.923         21.319344      32.522184      21440.513      4616.7544      7938.6316      3696.7683      975.46633      1132.9892     -510.986      
 103310000   241.61065     -420.64109     -339.72254     -420.66769      0              5560.7607      30.923         21.319344      32.459348      21399.087      4052.0291      5572.5781      7057.6749     -625.32804      1561.9693     -1559.5294    
 103312000   247.96368     -420.77936     -337.73309     -420.78876      0              7591.0684      30.923         21.319344      32.327157      21311.939      7211.7339      7821.6295      7739.8418      1735.6156      432.62015     -215.18814    
 103314000   246.81858     -418.84234     -336.17959     -418.85456      0              5289.2927      30.923         21.319344      32.443824      21388.853      6739.4009      7454.9531      1673.5241      1178.4699     -944.87185     -1849.1939    
 103316000   241.75184     -418.72078     -337.75494     -418.77294      0              7345.4146      30.923         21.319344      32.52738       21443.938      7933.969       8067.235       6035.0398     -156.60111     -646.30381     -61.408447    
 103318000   246.06382     -418.66166     -336.25167     -418.71027      0              7688.899       30.923         21.319344      32.520358      21439.309      6782.7875      10391.904      5892.0052     -1224.7236      422.0779       340.50826    
 103320000   240.19949     -419.33639     -338.89045     -419.37898      0              6323.9427      30.923         21.319344      32.386705      21351.197      5823.8763      6854.8933      6293.0584      654.77352      1385.999       206.69525    
 103322000   242.31104     -420.29267     -339.13955     -420.31129      0              6609.5573      30.923         21.319344      32.406934      21364.533      7737.0403      6761.2246      5330.407      -1104.5412      57.56256      -669.13169    
 103324000   243.83812     -420.12216     -338.4576      -420.15471      0              6775.4658      30.923         21.319344      32.309775      21300.48       6277.7874      7868.7264      6179.8835      165.30492     -3734.7751     -1684.3909    
 103326000   241.68116     -416.95495     -336.01278     -417.01099      0              7203.0081      30.923         21.319344      32.392211      21354.827      7336.4098      6725.7829      7546.8318     -1348.1491     -1913.272       1602.9827    
 103328000   242.17958     -420.76783     -339.65873     -420.7986       0              5552.3657      30.923         21.319344      32.504592      21428.915      5291.9983      4465.7786      6899.3203     -159.15619     -700.62095      553.81836    
 103330000   247.32407     -420.43159     -337.59953     -420.45443      0              6807.756       30.923         21.319344      32.337492      21318.753      6118.4111      6936.3667      7368.4903     -1156.7947      176.21632     -180.19878    
 103332000   247.21519     -418.69951     -335.90392     -418.70108      0              6242.2917      30.923         21.319344      32.432659      21381.492      7844.9369      6786.836       4095.1022      388.03045     -1838.2058     -2348.1423    
 103334000   244.6764      -420.21316     -338.26785     -420.2369       0              7036.2357      30.923         21.319344      32.333154      21315.893      8487.7443      6682.5571      5938.4058     -419.0378       868.64377      828.67329    
 103336000   247.60948     -421.31445     -338.38681     -421.34477      0              6274.0053      30.923         21.319344      32.334079      21316.503      8207.4415      4625.1046      5989.4697      987.9656      -445.79447      1633.0945    
 103338000   243.76277     -420.35493     -338.7156      -420.3742       0              5761.494       30.923         21.319344      32.242643      21256.223      4947.9102      5963.26        6373.3119      280.34721      691.30358      1150.4795    
 103340000   250.75942     -420.30303     -336.32043     -420.33366      0              7091.8448      30.923         21.319344      32.291706      21288.568      7457.8134      7224.6718      6593.0493     -1055.2882     -803.13691     -757.6762     
 103342000   242.79042     -422.83119     -341.51752     -422.8514       0              5856.6094      30.923         21.319344      32.277621      21279.282      8300.4747      5081.796       4187.5576      322.85922      1012.1318     -1759.0275    
 103344000   245.40931     -419.29337     -337.10259     -419.3116       0              5257.3655      30.923         21.319344      32.389941      21353.33       4762.1934      4740.6197      6269.2834      972.62795      12.494234     -2111.1108    
 103346000   251.89366     -421.2273      -336.86483     -421.22974      0              6222.4847      30.923         21.319344      32.504068      21428.569      6790.5472      6637.2546      5239.6524     -754.30606     -47.338581     -350.18687    
 103348000   245.24989     -420.14318     -338.0058      -420.15306      0              3620.1101      30.923         21.319344      32.713846      21566.867      5125.4861      3680.9301      2053.9142     -12.818882      251.87153     -1400.377     
 103350000   240.43326     -418.85452     -338.33029     -418.87794      0              6021.2534      30.923         21.319344      32.39047       21353.679      5527.7945      6931.0745      5604.8911      973.72223     -1368.8495      127.98203    
 103352000   241.86139     -419.34482     -338.34229     -419.37457      0              5299.3579      30.923         21.319344      32.473235      21408.242      3266.0349      7387.185       5244.8539      2341.7126     -1104.9834      94.184682    
 103354000   242.9512      -420.46429     -339.09677     -420.46948      0              7067.546       30.923         21.319344      32.448514      21391.945      7102.9104      7055.5194      7044.2084     -947.51409     -1387.9623     -1406.8967    
 103356000   245.78272     -422.30225     -339.98641     -422.33381      0              5819.2037      30.923         21.319344      32.370765      21340.688      7437.4437      5636.9119      4383.2554     -3074.6161      705.20324     -100.96203    
 103358000   249.35349     -420.12537     -336.61364     -420.17604      0              6913.0971      30.923         21.319344      32.340754      21320.903      5261.6649      9132.2641      6345.3623     -397.61771      870.03383     -339.23434    
 103360000   235.32429     -419.78664     -340.97347     -419.80443      0              6299.3614      30.923         21.319344      32.325794      21311.041      4664.1358      7923.506       6310.4423      440.87682     -36.136381     -1117.9406    
 103362000   246.49785     -419.21312     -336.65777     -419.23569      0              7654.3478      30.923         21.319344      32.431526      21380.746      5609.3604      10615.32       6738.363       379.93909      154.23645     -248.45772    
 103364000   247.23904     -419.57069     -336.76711     -419.59371      0              5687.1141      30.923         21.319344      32.457135      21397.628      5148.4191      6396.9879      5515.9353      627.55405      929.18333     -342.45627    
 103366000   245.13267     -418.92275     -336.82462     -418.94695      0              5341.7635      30.923         21.319344      32.533758      21448.143      4263.8355      7220.4259      4541.029       892.93844     -797.63146     -2338.0583    
 103368000   241.84365     -417.99897     -337.00238     -418.02529      0              4359.8269      30.923         21.319344      32.409649      21366.323      5142.0321      5181.0596      2756.3889      128.32859     -393.28835      1077.5261    
 103370000   242.76343     -418.24641     -336.94177     -418.27348      0              7326.4449      30.923         21.319344      32.208669      21233.825      7819.011       8819.1984      5341.1254      586.53555     -513.12106      853.3396     
 103372000   250.95011     -421.08483     -337.03837     -421.10954      0              6299.1132      30.923         21.319344      32.529383      21445.258      7322.8383      6233.2535      5341.2477     -376.94871     -1297.0346     -117.6268     
 103374000   241.59236     -419.46114     -338.54871     -419.48733      0              7172.3061      30.923         21.319344      32.40259       21361.669      6580.7857      7699.929       7236.2036      802.56616      568.85224     -516.71387    
 103376000   244.05831     -419.98751     -338.2492      -420.01747      0              6745.257       30.923         21.319344      32.427693      21378.219      8431.3036      6104.5203      5699.9473     -103.5473       880.81604      126.67455    
 103378000   245.68387     -423.2906      -341.00787     -423.31686      0              6675.155       30.923         21.319344      32.461645      21400.602      6018.471       8310.9939      5696.0002      947.25517     -566.05332     -638.35372    
 103380000   237.19336     -421.93357     -342.49442     -421.96577      0              7755.6293      30.923         21.319344      32.183762      21217.405      7718.1894      7971.4713      7577.2271      100.98253     -155.31813     -877.34277    
 103382000   244.27899     -419.16558     -337.35336     -419.16602      0              7819.8773      30.923         21.319344      32.47449       21409.07       7633.6892      8576.2308      7249.7119      1582.751       1201.7154     -474.99619    
 103384000   242.40524     -420.79218     -339.6075      -420.8077       0              5077.6888      30.923         21.319344      32.540363      21452.497      6821.8466      3544.2728      4866.9471     -1061.5698      623.61563     -2450.039     
 103386000   242.06759     -418.4309      -337.35931     -418.45809      0              6342.2786      30.923         21.319344      32.434744      21382.867      6797.2856      5662.6323      6566.9179     -373.75312      234.94879      467.56655    
 103388000   242.52679     -419.55658     -338.3312      -419.56905      0              7081.5895      30.923         21.319344      32.45503       21396.241      7587.438       7462.6597      6194.6706      180.42644      604.07283      657.8556     
 103390000   250.22514     -419.34517     -335.54151     -419.39646      0              7638.7388      30.923         21.319344      32.329829      21313.701      8127.6222      7472.834       7315.7601      862.50278     -435.52903     -240.88911    
 103392000   241.04699     -421.10606     -340.37628     -421.11857      0              6129.9967      30.923         21.319344      32.21326       21236.852      5687.7103      7072.9968      5629.283       1156.3966      226.27991      304.9893     
 103394000   245.822       -421.18272     -338.85373     -421.19714      0              6295.1406      30.923         21.319344      32.501522      21426.891      6049.3905      6894.1889      5941.8424      2606.7018     -109.14787      87.609303    
 103396000   240.41175     -422.29242     -341.7754      -422.31776      0              7658.1187      30.923         21.319344      32.48423       21415.491      6783.2696      9647.7161      6543.3704      80.047862      1655.1714      106.10989    
 103398000   245.38919     -421.30832     -339.12428     -421.32039      0              7114.3673      30.923         21.319344      32.465355      21403.047      6920.457       7042.6113      7380.0336     -250.8217       418.50402     -273.18088    
 103400000   248.24258     -419.71787     -336.5782      -419.74495      0              8066.6218      30.923         21.319344      32.374717      21343.293      7724.2235      8421.2932      8054.3486      1735.5291     -212.64004     -654.94682    
 103402000   245.23269     -420.5331      -338.40148     -420.54529      0              6183.421       30.923         21.319344      32.305154      21297.434      6985.6064      6530.5747      5034.0819      939.75323      120.45005     -1108.366     
 103404000   241.21593     -420.19394     -339.40758     -420.2179       0              4623.6036      30.923         21.319344      32.506855      21430.407      4944.4885      4262.7032      4663.6191      538.36905      624.61573     -658.92403    
 103406000   240.22588     -423.19118     -342.7364      -423.21569      0              6287.1406      30.923         21.319344      32.430915      21380.342      5562.6936      5818.238       7480.4901     -493.43658      1959.2049      71.028452    
 103408000   241.73078     -418.49123     -337.53244     -418.52148      0              7877.3874      30.923         21.319344      32.471791      21407.291      7304.191       9072.2207      7255.7504      562.65811     -336.65108     -843.76594    
 103410000   243.71135     -420.19652     -338.57441     -420.20998      0              6605.6791      30.923         21.319344      32.427392      21378.02       5625.5851      8279.0695      5912.3827      1845.9666     -900.99687      312.29417    
 103412000   247.39229     -421.36577     -338.51087     -421.37922      0              8349.185       30.923         21.319344      32.375367      21343.722      8887.9261      6728.8103      9430.8185     -32.421112      339.12193     -860.05257    
 103414000   244.1289      -420.65423     -338.89228     -420.66536      0              5246.5776      30.923         21.319344      32.411815      21367.751      4989.54        4401.8917      6348.3013     -286.02092      16.728878      1816.259     
 103416000   252.71119     -419.93723     -335.30096     -419.93662      0              6021.8376      30.923         21.319344      32.562044      21466.79       4878.2225      6690.0629      6497.2275     -1177.9952      2273.4787     -1690.9613    
 103418000   249.53753     -418.03155     -334.45818     -418.05335      0              4917.7996      30.923         21.319344      32.354855      21330.2        3525.9877      5569.8559      5657.5551     -440.47469     -371.99365      4.5239178    
 103420000   243.91269     -423.97227     -342.28273     -424.0086       0              5605.4         30.923         21.319344      32.384703      21349.877      4239.465       6935.9456      5640.7894      1048.3241     -533.33399      460.25539    
 103422000   239.72621     -421.28384     -340.99641     -421.30537      0              3010.324       30.923         21.319344      32.620815      21505.536      5142.1447      2342.8642      1545.963       1714.7432      388.56326     -105.78555    
 103424000   243.71306     -419.71515     -338.09247     -419.72693      0              7921.5763      30.923         21.319344      32.383876      21349.332      7052.8219      7763.4633      8948.4438      1643.1218     -429.38697     -610.70083    
 103426000   245.33073     -418.52235     -336.35789     -418.54709      0              5636.7065      30.923         21.319344      32.62192       21506.264      7827.6974      6468.0364      2614.3857     -620.20305     -336.03245     -339.101      
 103428000   244.69553     -419.40637     -337.45465     -419.41929      0              4968.6007      30.923         21.319344      32.653808      21527.287      2966.1141      5543.1111      6396.5768      2350.4634     -190.57638     -993.94453    
 103430000   248.4512      -419.53746     -336.32792     -419.56162      0              5398.8404      30.923         21.319344      32.620168      21505.109      5229.2478      6900.8148      4066.4587     -598.87908      290.57682     -146.84511    
 103432000   245.13709     -419.71447     -337.61486     -419.7082       0              3242.0811      30.923         21.319344      32.676085      21541.973      4296.8286      2367.2595      3062.1552     -287.35433     -1101.5367      974.73027    
 103434000   243.91659     -421.54783     -339.85699     -421.57437      0              4992.8573      30.923         21.319344      32.476712      21410.534      5527.3651      3400.9371      6050.2698     -1441.6244     -341.0806      -996.95656    
 103436000   244.58992     -420.47897     -338.56261     -420.50246      0              6691.6361      30.923         21.319344      32.520716      21439.544      5639.5844      6547.1246      7888.1993      846.2987       798.1903       61.131893    
 103438000   245.30177     -421.93476     -339.78        -421.95643      0              3711.2106      30.923         21.319344      32.599482      21491.472      5926.085       3275.7654      1931.7815     -237.41843     -164.52485      300.90048    
 103440000   247.94281     -420.35818     -337.3189      -420.37371      0              5120.8009      30.923         21.319344      32.501088      21426.605      8323.3259      4013.9299      3025.147      -145.16037     -679.65613     -1856.1885    
 103442000   243.99179     -421.93121     -340.21518     -421.95492      0              5783.4826      30.923         21.319344      32.404849      21363.158      6119.0024      5791.9641      5439.4812      101.32542      1859.3716      811.27823    
 103444000   244.40772     -421.96994     -340.1146      -421.98814      0              4943.8899      30.923         21.319344      32.462166      21400.945      3694.5046      6188.6537      4948.5115      383.7739      -665.42408     -673.13985    
 103446000   249.13636     -418.9647      -335.52569     -418.9811       0              5666.0329      30.923         21.319344      32.49565       21423.019      4356.363       6515.1197      6126.6159      172.13592     -29.733696      131.38534    
 103448000   245.89044     -423.69932     -341.3474      -423.73284      0              7122.7252      30.923         21.319344      32.38704       21351.418      7070.6384      7228.0833      7069.4539      1679.0581      492.4308       256.5345     
 103450000   244.46748     -418.17501     -336.29966     -418.20179      0              6927.2642      30.923         21.319344      32.427558      21378.129      6393.4821      6271.276       8117.0346      1080.5439      1597.0872      997.8256     
 103452000   244.45826     -420.88867     -339.01642     -420.90807      0              5655.9289      30.923         21.319344      32.349368      21326.582      6839.8354      6324.0163      3803.9351     -1534.0785      872.97021     -595.05856    
 103454000   249.3987      -419.91889     -336.39202     -419.93484      0              7753.7157      30.923         21.319344      32.447182      21391.067      6964.4658      8097.8142      8198.867       382.32459     -182.71839     -806.7519     
 103456000   239.91239     -421.17014     -340.82035     -421.18498      0              3305.3858      30.923         21.319344      32.625818      21508.834      5011.9401      1548.7377      3355.4796     -2276.5195     -1673.2204     -844.12434    
 103458000   237.95411     -421.76932     -342.07539     -421.78246      0              5735.4316      30.923         21.319344      32.555145      21462.242      5300.9121      6215.3909      5689.9919      755.26781      506.28324      30.624866    
 103460000   245.27109     -422.2567      -340.11222     -422.2753       0              7138.4095      30.923         21.319344      32.489398      21418.898      7930.8207      7817.3608      5667.0468     -8.944186      -583.30126     -44.328095    
 103462000   244.64507     -416.76916     -334.83434     -416.77972      0              5731.9747      30.923         21.319344      32.444454      21389.268      5855.1211      8186.8549      3153.948       163.85788     -154.8663      -764.55578    
 103464000   239.95063     -421.27851     -340.91592     -421.30908      0              7378.8896      30.923         21.319344      32.311497      21301.615      6615.6605      7127.5799      8393.4282     -718.9013       872.4176       1397.3638    
 103466000   241.25669     -420.92416     -340.12415     -420.9908       0              7592.9703      30.923         21.319344      32.399584      21359.687      7686.7525      8105.9632      6986.1953     -210.68676      236.23127     -39.81642     
 103468000   243.88506     -419.34617     -337.66588     -419.37114      0              7555.4163      30.923         21.319344      32.489606      21419.035      7961.7927      7787.5078      6916.9486     -758.27768     -142.59701      954.19825    
 103470000   243.85448     -418.83059     -337.16055     -418.86879      0              4754.2163      30.923         21.319344      32.60169       21492.928      4613.5811      6327.8862      3321.1817      585.75139      1436.443      -1010.9986    
 103472000   245.8149      -420.01757     -337.69096     -420.0347       0              3528.2         30.923         21.319344      32.52061       21439.475      4879.3381      3232.2786      2472.9832      1583.3395      482.94645      96.111628    
 103474000   250.57495     -416.7591      -332.83829     -416.85275      0              7361.885       30.923         21.319344      32.349707      21326.806      8503.0818      7490.3051      6092.2682      1010.0718     -384.97685      64.38804     
 103476000   244.14568     -418.94265     -337.17508     -418.97677      0              5500.5947      30.923         21.319344      32.506715      21430.314      5335.081       5916.4867      5250.2165      208.15465      493.25378      589.92661    
 103478000   253.70388     -420.18772     -335.21898     -420.21289      0              6477.362       30.923         21.319344      32.336024      21317.785      6348.4212      6913.0342      6170.6307      600.88621     -494.24306     -542.41578    
 103480000   247.03885     -419.28674     -336.55021     -419.31126      0              7827.0068      30.923         21.319344      32.390733      21353.852      6822.9316      6777.8785      9880.2103      824.30127      82.496147     -549.94638    
 103482000   244.28798     -420.03138     -338.21615     -420.05446      0              5658.1816      30.923         21.319344      32.570093      21472.097      3435.0398      8439.488       5100.0169      1897.1656     -816.92303     -1462.6032    
 103484000   242.07493     -419.39648     -338.32243     -419.3892       0              7903.7542      30.923         21.319344      32.548343      21457.758      6470.7541      7340.0671      9900.4416      903.28053      534.8793       998.05992    
 103486000   246.41895     -422.67329     -340.14437     -422.67398      0              4985.904       30.923         21.319344      32.583258      21480.776      4707.6981      5968.8383      4281.1755      727.22753      406.26374     -704.73303    
 103488000   242.76043     -422.23794     -340.93431     -422.27971      0              5736.8687      30.923         21.319344      32.627328      21509.829      3455.9461      7517.6772      6236.9829      1911.0889      369.94802      111.40906    
 103490000   243.7542      -420.59627     -338.95982     -420.60378      0              5991.032       30.923         21.319344      32.400604      21360.36       5537.0208      5791.7739      6644.3014     -1053.2319      1439.3266      1159.5288    
 103492000   253.44528     -420.45669     -335.57457     -420.46364      0              5650.7539      30.923         21.319344      32.321574      21308.259      4375.4281      6337.4946      6239.3389     -292.63921      44.124771      441.07669    
 103494000   241.91051     -419.42939     -338.41041     -419.45654      0              4699.3998      30.923         21.319344      32.412516      21368.213      3552.5676      4548.7963      5996.8355     -97.943205      723.79469      355.14211    
 103496000   244.47735     -420.70796     -338.8293      -420.72809      0              5198.0372      30.923         21.319344      32.414763      21369.694      4637.1419      6082.0359      4874.934       2840.766       437.62344      904.31227    
 103498000   254.49995     -419.97765     -334.7423      -419.9946       0              9091.3465      30.923         21.319344      32.345026      21323.719      10197.856      7602.0594      9474.1245     -554.45795     -5.6408632     -1361.7968    
 103500000   244.79484     -421.69343     -339.70845     -421.71766      0              8365.5316      30.923         21.319344      32.315636      21304.344      8873.0174      8604.235       7619.3425     -1153.1376     -683.42588      1339.0469    
 103502000   242.01064     -419.4596      -338.40708     -419.45846      0              7535.3155      30.923         21.319344      32.441003      21386.993      6015.8282      8180.1748      8409.9435     -2033.6113      1583.7075     -76.133969    
 103504000   235.10353     -420.3091      -341.56986     -420.33548      0              8147.6633      30.923         21.319344      32.304526      21297.02       8007.205       8482.6311      7953.1537      240.55965      2224.901       424.64725    
 103506000   243.54074     -418.73297     -337.168       -418.72605      0              4809.5         30.923         21.319344      32.371128      21340.928      3596.5565      4550.2507      6281.6929      668.17351     -45.650465      2114.9345    
 103508000   246.68484     -417.82243     -335.20446     -417.8258       0              5699.8725      30.923         21.319344      32.525977      21443.013      5242.9245      4477.9477      7378.7453      49.421564     -1328.5353     -668.06797    
 103510000   241.84635     -420.24027     -339.24278     -420.26804      0              7622.7288      30.923         21.319344      32.473099      21408.153      8203.6431      7454.9495      7209.5939      163.27085     -64.309298      236.89255    
 103512000   244.31604     -419.93502     -338.1104      -419.94931      0              6944.9283      30.923         21.319344      32.550568      21459.225      8493.6936      5571.2128      6769.8786      1450.2636     -292.83034      1560.7608    
 103514000   249.48736     -423.46062     -339.90405     -423.46169      0              6819.513       30.923         21.319344      32.534278      21448.485      7517.447       6655.9282      6285.1638      200.01334      1576.1572     -318.22669    
 103516000   249.69292     -419.02818     -335.40277     -419.02263      0              6921.3404      30.923         21.319344      32.383715      21349.226      6450.9657      6908.0165      7405.039       1107.7471      171.61947      696.18979    
 103518000   241.9212      -419.53393     -338.51136     -419.55331      0              3213.5102      30.923         21.319344      32.404743      21363.088      2242.5043      2914.1778      4483.8485      347.96597     -1545.933       981.70076    
 103520000   243.23378     -419.66776     -338.20559     -419.68493      0              5276.0333      30.923         21.319344      32.436384      21383.948      3789.0944      5892.1812      6146.8243      2128.7406      1449.244      -2047.5296    
 103522000   239.64541     -421.04446     -340.78409     -421.0659       0              6945.522       30.923         21.319344      32.360241      21333.75       6198.2367      7862.1507      6776.1787     -431.00199     -125.04312      72.769407    
 103524000   249.21722     -420.45729     -336.99119     -420.46734      0              7581.7509      30.923         21.319344      32.497934      21424.526      6383.8148      7950.3899      8411.0479      1177.7234     -297.65787     -264.58201    
 103526000   250.15099     -422.56811     -338.78929     -422.59101      0              6207.2977      30.923         21.319344      32.43878       21385.528      6489.9521      5995.5404      6136.4007     -905.88143     -2096.8058      1008.2502    
 103528000   249.46328     -420.89036     -337.34186     -420.92992      0              9342.1138      30.923         21.319344      32.329027      21313.172      8041.1513      11041.694      8943.496       840.92791      814.19514     -473.12553    
 103530000   248.93676     -421.30623     -337.93406     -421.33013      0              5862.7743      30.923         21.319344      32.352313      21328.524      8166.8914      4743.6442      4677.7872      730.34427      1439.9026     -745.93982    
 103532000   240.45465     -419.88323     -339.35183     -419.9083       0              5998.5208      30.923         21.319344      32.343215      21322.526      4313.8328      7731.085       5950.6446      788.12665      90.630546     -566.70002    
 103534000   249.77662     -420.84943     -337.19598     -420.85405      0              6948.9145      30.923         21.319344      32.38373       21349.235      8119.8608      7368.9883      5357.8943      502.81857     -2371.2077     -1506.7523    
 103536000   241.42206     -420.2787      -339.42331     -420.28552      0              5177.4125      30.923         21.319344      32.403146      21362.036      6626.9069      4628.8184      4276.5123     -1778.9123      1204.7946      21.851649    
 103538000   250.91663     -421.15581     -337.12055     -421.16462      0              5652.7991      30.923         21.319344      32.484642      21415.763      5624.1461      5767.1957      5567.0555      219.79482     -1333.4213     -38.119296    
 103540000   239.77772     -422.88089     -342.5762      -422.88454      0              3774.6341      30.923         21.319344      32.399633      21359.719      3145.9328      5326.9353      2851.0342      414.8923       1984.353       869.70214    
 103542000   244.03513     -420.83068     -339.10013     -420.86883      0              8409.5228      30.923         21.319344      32.395356      21356.9        8887.8497      8242.8884      8097.8303     -136.85267     -621.29267      834.74375    
 103544000   248.23771     -417.96857     -334.83052     -417.98298      0              6732.6392      30.923         21.319344      32.38066       21347.212      6512.3848      7341.3492      6344.1837      1183.0037      663.8908      -1032.197     
 103546000   248.50358     -419.15574     -335.92865     -419.14586      0              5064.8425      30.923         21.319344      32.539337      21451.82       4511.8317      5168.2399      5514.4558     -241.40675      385.97423      218.01238    
 103548000   249.33622     -420.16819     -336.66224     -420.18789      0              5769.5201      30.923         21.319344      32.49026       21419.466      5487.5129      6192.2913      5628.756       345.72768     -1087.244       1268.3211    
 103550000   240.01176     -421.38165     -340.99858     -421.39657      0              5837.5817      30.923         21.319344      32.437371      21384.599      6706.0395      4711.5391      6095.1664     -214.56603     -371.09913      880.95042    
 103552000   246.25226     -418.79653     -336.32344     -418.81786      0              8344.9726      30.923         21.319344      32.391754      21354.526      6002.6596      9175.7106      9856.5477      1166.2356     -1248.2403     -308.1413     
 103554000   247.89142     -419.17008     -336.14801     -419.187        0              6397.6749      30.923         21.319344      32.340988      21321.058      6508.972       5872.0776      6811.9751     -827.0947       314.53764      494.47204    
 103556000   248.12711     -417.75905     -334.65804     -417.75645      0              5876.121       30.923         21.319344      32.381789      21347.956      4604.0175      6560.7462      6463.5993      908.9723       1346.9719     -1704.0395    
 103558000   245.31612     -419.58685     -337.42729     -419.61151      0              9118.3125      30.923         21.319344      32.306461      21298.295      8211.1903      10998.924      8144.8233      565.17485      153.06258     -59.761701    
 103560000   244.6307      -420.72546     -338.79545     -420.73462      0              7635.9405      30.923         21.319344      32.417014      21371.178      8091.3682      7715.7678      7100.6854      842.58048     -556.10234     -1018.783     
 103562000   238.46985     -418.38612     -338.51946     -418.39706      0              4586.7415      30.923         21.319344      32.467514      21404.471      2450.3328      4118.9677      7190.9238      96.427247      2070.4827      1106.7376    
 103564000   251.35862     -421.22082     -337.03754     -421.23011      0              4343.4098      30.923         21.319344      32.630269      21511.768      3444.845       5841.8019      3743.5826     -744.68541     -1325.032       1459.32      
 103566000   236.55469     -419.30484     -340.07959     -419.32144      0              6495.0574      30.923         21.319344      32.457974      21398.181      5770.876       5863.6783      7850.618       520.22285     -565.83075      321.73908    
 103568000   247.75327     -420.30283     -337.32703     -420.29378      0              5073.1249      30.923         21.319344      32.679002      21543.896      6030.896       4251.4082      4937.0705      2165.3338     -1298.4537      518.96806    
 103570000   242.66702     -417.00775     -335.7354      -417.01113      0              6555.2438      30.923         21.319344      32.51212       21433.877      5654.8937      5889.9006      8120.937      -175.11683      136.29518      457.84274    
 103572000   250.33627     -421.24573     -337.40485     -421.27182      0              4872.7157      30.923         21.319344      32.529689      21445.46       4435.5946      4753.087       5429.4656      404.56116     -422.3973       2775.3186    
 103574000   246.87636     -420.78462     -338.10251     -420.79435      0              4945.1743      30.923         21.319344      32.438499      21385.342      3943.6454      6583.8074      4308.0702      1056.1751      3275.2248      1053.9247    
[...]
 105858000   249.64152     -419.03307     -335.42487     -419.05052      0              6145.8424      30.923         21.319344      32.610189      21498.53       6328.8111      6076.8503      6031.8658     -1308.2535      1350.0366     -130.34975    
 105860000   247.31585     -417.89753     -335.06822     -417.93913      0              5890.0715      30.923         21.319344      32.535981      21449.608      4637.7543      6237.1961      6795.2641     -39.963295      484.91773      199.43082    
 105862000   257.62592     -418.00008     -331.7178      -418.01328      0              6178.0876      30.923         21.319344      32.50406       21428.564      6056.1388      6569.9398      5908.1842      361.89521     -264.45002      360.87111    
 105864000   239.44783     -422.12191     -341.92771     -422.14215      0              5613.7775      30.923         21.319344      32.688093      21549.889      5621.8434      5724.9572      5494.532       1122.1445      594.90301      285.02485    
 105866000   243.86885     -421.18517     -339.51031     -421.21414      0              6804.186       30.923         21.319344      32.58752       21483.586      4255.628       9116.8958      7040.034       1128.5789      452.1558       123.50966    
 105868000   244.75585     -418.1663      -336.19437     -418.18338      0              5114.2641      30.923         21.319344      32.949294      21722.088      4876.459       5915.9518      4550.3815      1961.2247      926.30485      262.14174    
 105870000   246.31935     -417.93122     -335.43566     -417.93782      0              6905.3187      30.923         21.319344      32.818056      21635.568      6118.0104      8056.419       6541.5268     -116.25317     -187.92802     -1745.2405    
 105872000   247.59849     -420.96479     -338.04083     -420.97458      0              5447.0954      30.923         21.319344      32.777945      21609.125      4766.4716      5477.5336      6097.2809     -796.94441     -677.6772      -372.90523    
 105874000   243.23406     -419.06466     -337.6024      -419.07669      0              7577.8312      30.923         21.319344      32.725165      21574.329      7215.9924      8768.4949      6749.0062      1285.1011     -159.62594     -1642.5184    
 105876000   243.23727     -421.32821     -339.86488     -421.36003      0              5791.4774      30.923         21.319344      32.575588      21475.72       5939.7872      6674.1921      4760.4531      688.5348       305.55103     -710.81914    
 105878000   250.35896     -421.98232     -338.13384     -422.00727      0              5181.2916      30.923         21.319344      32.666239      21535.482      5799.1188      5652.1801      4092.5761      475.87857      1089.8405      165.27652    
 105880000   238.52892     -421.06603     -341.17958     -421.09041      0              5488.7858      30.923         21.319344      32.691196      21551.935      5872.5837      4305.6185      6288.1551      430.71529     -1366.2306     -108.34384    
 105882000   241.61208     -420.1062      -339.18716     -420.13036      0              6326.1325      30.923         21.319344      32.74761       21589.126      5837.981       7628.836       5511.5806      2433.8283      802.0591      -1742.7277    
 105884000   252.26788     -422.48396     -337.99616     -422.51285      0              6036.72        30.923         21.319344      32.64941       21524.387      6001.3         5131.5627      6977.2974      420.30383      1170.0889      497.41724    
 105886000   244.58063     -419.30088     -337.38764     -419.32856      0              6594.2098      30.923         21.319344      32.538016      21450.95       5702.6605      6323.4643      7756.5046      1273.8942      1844.1865      954.32727    
 105888000   240.93125     -420.87136     -340.18035     -420.91577      0              6331.1226      30.923         21.319344      32.61468       21501.491      5478.9348      6805.7167      6708.7161      368.82177      477.59355     -385.6713     
 105890000   247.89737     -420.55501     -337.53095     -420.56647      0              6249.1253      30.923         21.319344      32.613407      21500.652      5194.655       6520.3764      7032.3444      897.81767      1000.5384     -1910.2403    
 105892000   240.3322      -418.82618     -338.33579     -418.83496      0              7202.1794      30.923         21.319344      32.61495       21501.669      7234.9925      5634.1279      8737.4178      631.77256      1049.122      -80.985214    
 105894000   246.62706     -419.93089     -337.33227     -419.9335       0              3982.1133      30.923         21.319344      32.653161      21526.86       4455.0185      2282.1515      5209.17        823.72107      455.408        1119.5432    
 105896000   244.49424     -420.93602     -339.05171     -420.98162      0              7683.9575      30.923         21.319344      32.666376      21535.572      7530.0244      7565.5664      7956.2818     -806.26861      353.22994     -280.14474    
 105898000   244.08224     -419.08738     -337.34106     -419.10716      0              5080.5118      30.923         21.319344      32.805531      21627.311      4930.3864      5283.7122      5027.4368     -791.07365      338.66072     -674.14175    
 105900000   249.311       -422.45936     -338.96185     -422.47657      0              6495.563       30.923         21.319344      32.754394      21593.599      4331.8954      7846.2998      7308.4939     -931.87275     -261.55612     -1216.3088    
 105902000   244.09774     -422.67929     -340.92778     -422.71533      0              5795.093       30.923         21.319344      32.649526      21524.464      5988.9549      5732.8266      5663.4974      1005.0553     -205.63566     -1181.9148    
 105904000   245.79392     -421.37657     -339.05699     -421.44415      0              7243.8239      30.923         21.319344      32.558372      21464.37       6569.1104      8199.8212      6962.5399     -388.11745     -95.980997     -733.87254    
 105906000   247.52987     -421.88439     -338.98341     -421.90881      0              5821.7791      30.923         21.319344      32.606553      21496.134      5050.7909      5433.9623      6980.584      -1023.4075     -126.31801      59.680148    
 105908000   243.82712     -418.9197      -337.25882     -418.94397      0              6244.2778      30.923         21.319344      32.578052      21477.344      4857.394       7635.2148      6240.2244     -802.3843       1038.1938     -836.23786    
 105910000   242.28185     -420.61205     -339.4687      -420.61671      0              6818.5598      30.923         21.319344      32.726741      21575.368      7314.6195      6038.0774      7102.9825      942.94515      833.02016      345.18673    
 105912000   245.0106      -419.70568     -337.64844     -419.71437      0              7643.1415      30.923         21.319344      32.575093      21475.393      7500.9152      6580.6219      8847.8873      223.05525      2123.2165      1078.8622    
 105914000   245.20115     -420.37758     -338.25652     -420.38388      0              6924.4809      30.923         21.319344      32.637504      21516.538      6737.691       7297.2417      6738.51       -657.53154      1251.6406      1065.3238    
 105916000   245.72537     -419.70162     -337.40499     -419.71468      0              6219.7644      30.923         21.319344      32.572981      21474.001      6557.2944      6529.8967      5572.102      -52.663277     -269.68736     -632.69819    
 105918000   244.40226     -419.118       -337.2645      -419.11605      0              6186.3647      30.923         21.319344      32.649207      21524.253      5772.8219      6914.5795      5871.6928     -103.57734      1518.4437     -472.30771    
 105920000   237.6065      -418.22779     -338.65027     -418.25873      0              7279.1947      30.923         21.319344      32.804413      21626.574      9238.4623      6071.2091      6527.9128     -681.20015     -7.1971832     -988.03076    
 105922000   241.62784     -420.47856     -339.55424     -420.50095      0              4983.0522      30.923         21.319344      32.90662       21693.955      6685.1055      4673.0692      3590.9818      1633.5583     -382.74556     -17.911709    
 105924000   242.65122     -420.92833     -339.66127     -420.9522       0              3281.999       30.923         21.319344      32.828728      21642.604      3004.1614      5433.5274      1408.3082     -180.66742     -21.365512     -462.67056    
 105926000   242.6303      -421.0106      -339.75055     -421.03146      0              5619.544       30.923         21.319344      32.755508      21594.333      6816.087       5546.2589      4496.2862      1178.3116     -88.937729     -350.42659    
 105928000   245.36017     -421.01214     -338.83782     -421.04993      0              5533.0493      30.923         21.319344      32.657751      21529.886      5883.3575      4575.7446      6140.0458      584.28775     -886.27745      368.13881    
 105930000   243.22354     -420.59206     -339.13332     -420.62007      0              6727.8637      30.923         21.319344      32.653889      21527.34       6459.2404      7702.8099      6021.5409     -598.24664      1308.5876     -460.4396     
 105932000   242.0482      -420.99834     -339.93325     -421.00154      0              5145.0161      30.923         21.319344      32.713614      21566.714      7170.8556      3726.9798      4537.213      -722.04495     -26.045467     -191.65941    
 105934000   244.56777     -418.53573     -336.62679     -418.5658       0              6493.4026      30.923         21.319344      32.546255      21456.381      4694.4449      6411.6909      8374.0719      151.24891      1378.6462      783.14708    
 105936000   246.37358     -419.58423     -337.0705      -419.61022      0              4929.3639      30.923         21.319344      32.330155      21313.916      3955.5707      5170.3788      5662.1423      339.76031      1727.9287     -2133.5998    
 105938000   246.04552     -419.33286     -336.92901     -419.34745      0              7429.017       30.923         21.319344      32.496149      21423.349      7649.3362      6884.633       7753.0818      1012.449       181.35822     -277.17177    
 105940000   249.3083      -420.41726     -336.92066     -420.42797      0              4564.9161      30.923         21.319344      32.682078      21545.924      4959.1103      3099.8316      5635.8065      883.21544      1123.1679     -516.76518    
 105942000   250.92212     -422.05955     -338.02246     -422.07893      0              4927.025       30.923         21.319344      32.560463      21465.748      4639.5985      4066.5647      6074.9119      1191.5711     -609.08777      1212.1503    
 105944000   246.53577     -421.35913     -338.79109     -421.35764      0              6800.956       30.923         21.319344      32.58066       21479.063      6864.553       6904.4089      6633.9059      615.76888      2228.0286      164.892      
 105946000   246.74131     -420.32363     -337.68675     -420.346        0              5763.9308      30.923         21.319344      32.713977      21566.954      5902.3935      5578.2639      5811.1351     -107.4065       1839.6928      216.05759    
 105948000   245.16715     -418.78426     -336.67458     -418.79811      0              5966.9455      30.923         21.319344      32.721952      21572.211      7691.0484      4107.691       6102.097       47.61917      -593.13135     -38.842487    
 105950000   242.36769     -419.69312     -338.52102     -419.70558      0              5436.8632      30.923         21.319344      32.793434      21619.336      4594.0445      5725.8271      5990.7179      451.81671      92.900242      723.51646    
 105952000   239.19286     -421.87604     -341.76724     -421.91157      0              7852.3268      30.923         21.319344      32.56446       21468.383      8215.0937      8110.7701      7231.1167     -1123.4024      2446.5236      144.06056    
 105954000   246.5017      -420.4866      -337.92997     -420.49537      0              5920.8169      30.923         21.319344      32.621971      21506.298      7395.8501      5691.4425      4675.158       588.45466      48.071994     -952.74905    
 105956000   250.06846     -419.01903     -335.26785     -419.0436       0              6242.1977      30.923         21.319344      32.550266      21459.026      6247.9367      6044.6289      6434.0275     -507.14954     -1212.0906     -1281.7721    
 105958000   246.37252     -421.0624      -338.54903     -421.06149      0              6393.046       30.923         21.319344      32.403535      21362.292      6064.6505      6979.4064      6135.0812      1704.2989      412.97231      357.17967    
 105960000   244.71309     -420.5807      -338.6231      -420.59652      0              5204.7106      30.923         21.319344      32.559938      21465.402      6834.8137      4166.9851      4612.3329     -117.07873      1118.6236      459.70019    
 105962000   244.55231     -420.64819     -338.74443     -420.64563      0              4901.2351      30.923         21.319344      32.693994      21553.779      6413.8126      3358.4839      4931.4088     -1067.4069     -877.18239     -1147.3982    
 105964000   240.75695     -423.43387     -342.80122     -423.482        0              6571.3425      30.923         21.319344      32.571711      21473.164      7109.7275      7786.2491      4818.0511     -682.55411      1749.3219      73.932703    
 105966000   241.13226     -419.10886     -338.35052     -419.12195      0              7025.7123      30.923         21.319344      32.595213      21488.657      5864.6874      7990.6403      7221.8094      333.63233      686.6709      -946.3275     
 105968000   244.69358     -420.08823     -338.13716     -420.10224      0              4641.1537      30.923         21.319344      32.50454       21428.881      4121.0044      5790.34        4012.1169     -661.73848      1617.8489     -500.44127    
 105970000   240.95873     -421.22769     -340.52747     -421.23633      0              5112.8851      30.923         21.319344      32.480521      21413.046      4591.3663      6240.0818      4507.2072     -476.75309      900.4829      -261.03247    
 105972000   243.44599     -422.00129     -340.46805     -421.99243      0              6319.5757      30.923         21.319344      32.578582      21477.693      6219.3716      6422.096       6317.2595      210.898        2064.9486      577.192      
 105974000   244.8411      -417.641       -335.64053     -417.63208      0              6015.2581      30.923         21.319344      32.509339      21432.044      5087.423       4600.9921      8357.3591     -976.53557      1940.3925      946.77038    
 105976000   249.90427     -420.90464     -337.20845     -420.91199      0              5504.7022      30.923         21.319344      32.415756      21370.349      5787.9886      5425.7075      5300.4104      663.41555     -304.82705     -828.04285    
 105978000   247.52935     -419.68346     -336.78265     -419.68743      0              6316.6326      30.923         21.319344      32.460668      21399.958      6539.2527      6604.2764      5806.3686      128.2287       968.55854     -1062.7218    
 105980000   249.47949     -422.38019     -338.82625     -422.39234      0              3848.6392      30.923         21.319344      32.457765      21398.044      5122.4439      2897.2425      3526.2311     -594.06036      1559.1988     -1772.4958    
 105982000   245.80262     -418.23037     -335.90787     -418.20947      0              7252.6111      30.923         21.319344      32.476174      21410.18       8224.101       8439.5746      5094.1578     -14.613187      811.26977     -1171.1003    
 105984000   236.41904     -421.39906     -342.21924     -421.40395      0              7339.965       30.923         21.319344      32.380703      21347.24       8009.7967      7407.5546      6602.5436     -957.81374      608.09755      570.12135    
 105986000   249.38931     -421.08004     -337.55631     -421.06993      0              4636.8918      30.923         21.319344      32.537552      21450.644      4235.7073      5440.4116      4234.5564      401.80818      2574.8373     -1631.0095    
 105988000   243.18303     -419.30145     -337.85629     -419.30341      0              3585.8417      30.923         21.319344      32.595735      21489.002      2730.9097      3613.7911      4412.8243      1005.2621      1664.2461     -90.532654    
 105990000   248.67501     -419.80312     -336.51862     -419.81889      0              4127.0271      30.923         21.319344      32.692262      21552.638      3210.7457      6368.9084      2801.4273      1283.3097      1455.6094     -2658.6051    
 105992000   245.87678     -420.25706     -337.90972     -420.25301      0              5862.9483      30.923         21.319344      32.779999      21610.479      8267.8127      5980.5506      3340.4815     -1038.2235      1972.9186      766.33248    
 105994000   247.29853     -419.39175     -336.56825     -419.37088      0              4664.8363      30.923         21.319344      32.618216      21503.822      3285.9923      5186.9209      5521.5955     -113.50186      1745.5308      1037.887     
 105996000   246.60884     -420.79998     -338.20747     -420.82377      0              5790.2879      30.923         21.319344      32.515217      21435.919      4267.6407      6229.5872      6873.6357      2103.7792      559.65787     -16.86724     
 105998000   250.94956     -421.79912     -337.75284     -421.83404      0              5453.1158      30.923         21.319344      32.465428      21403.096      5272.5149      4909.2545      6177.578       1329.5179      1301.6629      907.04577    
 106000000   250.27365     -420.1657      -336.34579     -420.1677       0              5784.1398      30.923         21.319344      32.492744      21421.104      7751.2117      4206.4765      5394.7311     -160.67436      513.9154       391.559      
Loop time of 35261.5 on 4 procs for 2993000 steps with 2592 atoms

Performance: 3.667 ns/day, 6.545 hours/ns, 84.880 timesteps/s
1421.2% CPU use with 4 MPI tasks x no OpenMP threads

MPI task timing breakdown:
Section |  min time  |  avg time  |  max time  |%varavg| %total
---------------------------------------------------------------
Pair    | 8391.3     | 8428.2     | 8485.3     |  38.3 | 23.90
Bond    | 0.28944    | 0.30381    | 0.32176    |   2.2 |  0.00
Neigh   | 256.61     | 263.4      | 267.05     |  26.3 |  0.75
Comm    | 933.38     | 989.34     | 1033.2     | 115.3 |  2.81
Output  | 3151.3     | 3151.3     | 3151.3     |   0.0 |  8.94
Modify  | 22420      | 22421      | 22421      |   0.3 | 63.58
Other   |            | 8.259      |            |       |  0.02

Nlocal:            648 ave         651 max         644 min
Histogram: 1 0 1 0 0 0 0 0 0 2
Nghost:        4261.75 ave        4272 max        4252 min
Histogram: 1 1 0 0 0 0 0 0 1 1
Neighs:              0 ave           0 max           0 min
Histogram: 4 0 0 0 0 0 0 0 0 0
FullNghs:       167654 ave      169529 max      166068 min
Histogram: 2 0 0 0 0 0 0 0 1 1

Total # of neighbors = 670616
Ave neighs/atom = 258.72531
Ave special neighs/atom = 0
Neighbor list builds = 59860
Dangerous builds not checked
unfix 3
unfix 1
unfix 2


# Finalize simulation
write_restart	restart.lmp.${pid}
write_restart	restart.lmp.0
System init for write_restart ...
Generated 0 of 1 mixed pair_coeff terms from geometric mixing rule
write_data	data.final.${pid} nocoeff
write_data	data.final.0 nocoeff
System init for write_data ...
Generated 0 of 1 mixed pair_coeff terms from geometric mixing rule
Total wall time: 9:47:58
