LAMMPS (23 Jun 2022)
include procedure.lmp
echo both
include		in.partitions
variable        pid world 0
include		in.temp
variable	temperature equal 245
variable        tempDamp equal 0.100 # this is 0.1 ps
include		in.pressure
variable        pressure equal 6079.5
variable        pressureDamp equal 1.0 #this is 1ps

variable	barostat string	   tri
variable	direction string   z
variable	direction_x_bool equal 0
variable	direction_y_bool equal 0
variable	direction_z_bool equal 1

include		in.seed
variable        seed world 745823

units           metal
atom_style	full
box tilt large
read_restart 	restart.lmp.${pid}
read_restart 	restart.lmp.0
Reading restart file ...
  restart file = 23 Jun 2022, LAMMPS = 23 Jun 2022
  restoring atom style full from restart
  triclinic box = (0 0 -0.84090831) to (30.923 21.319344 31.563503) with tilt (-9.137482 1.1315304 -10.649581)
  2 by 1 by 2 MPI processor grid
Summary of lammps deepmd module ...
  >>> Info of deepmd-kit:
  installed to:       /u/sigbjobo/software/DEEPMD_FROM_SOURCE/deepmd-kit/install
  source:             v2.1.3
  source branch:       master
  source commit:      5a32c49
  source commit at:   2022-07-01 09:52:58 +0800
  surpport model ver.:1.1 
  build float prec:   double
  build with tf inc:  /u/sigbjobo/software/DEEPMD_FROM_SOURCE/tensorflow/install/include;/u/sigbjobo/software/DEEPMD_FROM_SOURCE/tensorflow/install/include
  build with tf lib:  /u/sigbjobo/software/DEEPMD_FROM_SOURCE/tensorflow/install/lib/libtensorflow_cc.so;/u/sigbjobo/software/DEEPMD_FROM_SOURCE/tensorflow/install/lib/libtensorflow_framework.so
  set tf intra_op_parallelism_threads: 0
  set tf inter_op_parallelism_threads: 0
  >>> Info of lammps module:
  use deepmd-kit at:  /u/sigbjobo/software/DEEPMD_FROM_SOURCE/deepmd-kit/install
  source:             v2.1.3
  source branch:      master
  source commit:      5a32c49
  source commit at:   2022-07-01 09:52:58 +0800
  build float prec:   double
  build with tf inc:  /u/sigbjobo/software/DEEPMD_FROM_SOURCE/tensorflow/install/include;/u/sigbjobo/software/DEEPMD_FROM_SOURCE/tensorflow/install/include
  build with tf lib:  /u/sigbjobo/software/DEEPMD_FROM_SOURCE/tensorflow/install/lib/libtensorflow_cc.so;/u/sigbjobo/software/DEEPMD_FROM_SOURCE/tensorflow/install/lib/libtensorflow_framework.so
  restoring pair style deepmd from restart
  2592 atoms
Finding 1-2 1-3 1-4 neighbors ...
  special bond factors lj:    0        0        0       
  special bond factors coul:  0        0        0       
     0 = max # of 1-2 neighbors
     0 = max # of 1-3 neighbors
     0 = max # of 1-4 neighbors
     1 = max # of special neighbors
  special bonds CPU = 0.001 seconds
  read_restart CPU = 0.042 seconds
include 	in.setup
variable	out_freq equal 2000
variable	out_freq2 equal 2000

timestep        0.0005

neigh_modify    delay 7 every 1

include         in.deepmd
# This is deepMD model

# create groups ###
#group ox type 2
#group hy type 1

mass 2 15.999
mass 1 1.008

pair_style      deepmd ../graph.pb
pair_coeff      * *

bond_style      none
angle_style     none
dihedral_style  none
improper_style  none
neigh_modify exclude none


neighbor        2.0 bin
neigh_modify    every 50 delay 0 check no

thermo          ${out_freq}
thermo          2000
thermo_style 	custom step temp pe etotal epair emol press lx ly lz vol pxx pyy pzz pxy pxz pyz

restart 	${out_freq} restart.lmp.${pid} restart2.lmp.${pid}
restart 	2000 restart.lmp.${pid} restart2.lmp.${pid}
restart 	2000 restart.lmp.0 restart2.lmp.${pid}
restart 	2000 restart.lmp.0 restart2.lmp.0


timer           timeout 23:50:00 every 1000
New timer settings: style=normal  mode=nosync  timeout=23:50:00


# Set number of time steps
variable 	nsteps_wall		equal	 6000000
variable 	nsteps_enhanced_coex    equal	300000000

variable     nsteps_enhanced_coex_upto equal (${nsteps_wall}+${nsteps_enhanced_coex})
variable     nsteps_enhanced_coex_upto equal (6000000+${nsteps_enhanced_coex})
variable     nsteps_enhanced_coex_upto equal (6000000+300000000)


# Set temperature for first step
if "$(step) < 1  " then    "velocity 	all create ${temperature} ${seed} dist gaussian"


# Always run thermo and barostat


######################################
# Run simulation with wall potential #
######################################
if " $(step) < ${nsteps_wall} " then    "fix             3 all plumed plumedfile plumed.equil.dat outfile plumed.equil.out"   "fix             1 all nph ${direction} ${pressure} ${pressure} ${pressureDamp}"   "fix             2 all temp/csvr ${temperature} ${temperature} ${tempDamp} ${seed}"   "run             ${nsteps_wall} upto"
if " $(step) == ${nsteps_wall} " then    "unfix 3"   "unfix 1"   "unfix 2"


############################
# Run enhanced coesistence #
############################
if "$(step) == ${nsteps_wall}" then    "fix             3 all plumed plumedfile plumed.start.dat outfile plumed.out" else    "fix             3 all plumed plumedfile plumed.dat outfile plumed.out"
fix             3 all plumed plumedfile plumed.dat outfile plumed.out

if "$(step) < ${nsteps_enhanced_coex_upto} && $(step) >= ${nsteps_wall} " then    "include         in.dump"    "fix             1 all nph ${direction} ${pressure} ${pressure} ${pressureDamp}"   "fix             2 all temp/csvr ${temperature} ${temperature} ${tempDamp} ${seed}"   "run             ${nsteps_enhanced_coex_upto} upto"    "unfix 3"   "unfix 1"   "unfix 2"
include         in.dump
dump            myDump all atom ${out_freq2} dump.water.${pid}
dump            myDump all atom 2000 dump.water.${pid}
dump            myDump all atom 2000 dump.water.0
dump            myDump2 all dcd ${out_freq2} dump.${pid}.dcd
dump            myDump2 all dcd 2000 dump.${pid}.dcd
dump            myDump2 all dcd 2000 dump.0.dcd
dump_modify     myDump append yes
dump_modify     myDump2 append yes

fix             1 all nph ${direction} ${pressure} ${pressure} ${pressureDamp}
fix             1 all nph z ${pressure} ${pressure} ${pressureDamp}
fix             1 all nph z 6079.5 ${pressure} ${pressureDamp}
fix             1 all nph z 6079.5 6079.5 ${pressureDamp}
fix             1 all nph z 6079.5 6079.5 1
fix             2 all temp/csvr ${temperature} ${temperature} ${tempDamp} ${seed}
fix             2 all temp/csvr 245 ${temperature} ${tempDamp} ${seed}
fix             2 all temp/csvr 245 245 ${tempDamp} ${seed}
fix             2 all temp/csvr 245 245 0.1 ${seed}
fix             2 all temp/csvr 245 245 0.1 745823
run             ${nsteps_enhanced_coex_upto} upto
run             306000000 upto

CITE-CITE-CITE-CITE-CITE-CITE-CITE-CITE-CITE-CITE-CITE-CITE-CITE

Your simulation uses code contributions which should be cited:

- USER-DEEPMD package:

@article{Wang_ComputPhysCommun_2018_v228_p178,
  author = {Wang, Han and Zhang, Linfeng and Han, Jiequn and E, Weinan},
  doi = {10.1016/j.cpc.2018.03.016},
  url = {https://doi.org/10.1016/j.cpc.2018.03.016},
  year = 2018,
  month = {jul},
  publisher = {Elsevier {BV}},
  volume = 228,
  journal = {Comput. Phys. Commun.},
  title = {{DeePMD-kit: A deep learning package for many-body potential energy representation and molecular dynamics}},
  pages = {178--184}
}

CITE-CITE-CITE-CITE-CITE-CITE-CITE-CITE-CITE-CITE-CITE-CITE-CITE

Generated 0 of 1 mixed pair_coeff terms from geometric mixing rule
Neighbor list info ...
  update every 50 steps, delay 0 steps, check no
  max neighbors/atom: 2000, page size: 100000
  master list distance cutoff = 8
  ghost atom cutoff = 8
  binsize = 4, bins = 11 8 9
  1 neighbor lists, perpetual/occasional/extra = 1 0 0
  (1) pair deepmd, perpetual
      attributes: full, newton on
      pair build: full/bin
      stencil: full/bin/3d
      bin: standard
Per MPI rank memory allocation (min/avg/max) = 6.236 | 6.238 | 6.239 Mbytes
   Step          Temp          PotEng         TotEng         E_pair         E_mol          Press            Lx             Ly             Lz           Volume          Pxx            Pyy            Pzz            Pxy            Pxz            Pyz      
 217113000   246.32938     -423.41783     -340.91891     -423.41783      0              8217.7759      30.923         21.319344      32.404412      21362.87       9075.797       6827.0234      8750.5074     -666.79661     -471.64949      1923.7696    
 217114000   243.49744     -422.39935     -340.84888     -422.42575      0              3822.978       30.923         21.319344      32.739645      21583.876      6364.1595      2621.4332      2483.3412      469.69048     -513.36873     -125.6217     
 217116000   248.37961     -423.08432     -339.89875     -423.09187      0              6161.7352      30.923         21.319344      32.561134      21466.191      4913.0322      6693.3194      6878.854      -1204.7316     -381.63668      944.69262    
 217118000   246.64714     -422.67838     -340.07304     -422.69947      0              5299.6667      30.923         21.319344      32.61321       21500.522      5367.5579      5302.466       5228.9761      861.59196      1256.4109      2227.6553    
 217120000   249.4094      -422.40319     -338.87274     -422.41147      0              6017.3137      30.923         21.319344      32.609777      21498.259      3433.2491      7058.7454      7559.9466     -1474.7219     -1374.6427     -1592.3227    
 217122000   250.52709     -421.05036     -337.14557     -421.06284      0              4066.9717      30.923         21.319344      32.668786      21537.161      3090.3707      5012.5833      4097.9612      1931.3363      782.93841     -412.19649    
 217124000   244.52896     -421.97866     -340.08272     -421.9946       0              6141.0174      30.923         21.319344      32.740042      21584.137      4392.861       8084.5579      5945.6333     -648.55853      285.95496     -11.71889     
 217126000   249.92706     -421.67932     -337.9755      -421.70741      0              6273.3741      30.923         21.319344      32.766299      21601.447      5602.5762      4920.4551      8297.0909     -272.70157      40.167854      1304.6438    
 217128000   245.17961     -421.54989     -339.43605     -421.56547      0              5715.0095      30.923         21.319344      32.545672      21455.997      6123.5832      6199.9373      4821.5081      1043.6376      88.825805      389.62889    
 217130000   246.89025     -422.89364     -340.20688     -422.90659      0              4349.4852      30.923         21.319344      32.563412      21467.692      4262.3344      3743.6898      5042.4314      135.22594      815.03898     -811.10377    
 217132000   237.3527      -420.6758      -341.18328     -420.70064      0              6734.7123      30.923         21.319344      32.388712      21352.52       4867.6546      9240.9256      6095.5567     -869.77412     -937.09073     -342.70973    
 217134000   247.26204     -426.61085     -343.79957     -426.64081      0              6499.9651      30.923         21.319344      32.55582       21462.687      5911.6655      7043.0048      6545.2251     -492.94751      95.013346     -1786.5258    
 217136000   241.7662      -425.08168     -344.11103     -425.09576      0              5517.8582      30.923         21.319344      32.614699      21501.504      5411.4293      5100.9097      6041.2357      491.13721     -230.03443      959.06543    
 217138000   250.80944     -421.32624     -337.32689     -421.33754      0              5270.215       30.923         21.319344      32.644471      21521.131      5838.134       4728.9943      5243.5169      1879.8952      565.14064      405.32799    
 217140000   248.35916     -421.95245     -338.77373     -421.979        0              5458.078       30.923         21.319344      32.513833      21435.007      5134.0779      4490.9309      6749.2253      854.67457      655.59293      2410.8404    
 217142000   239.18433     -422.06525     -341.9593      -422.07945      0              5554.2256      30.923         21.319344      32.534877      21448.88       5367.0921      4645.0054      6650.5794      1276.0046     -2008.3631      1359.2171    
 217144000   249.07951     -419.97796     -336.55799     -419.99438      0              3318.6521      30.923         21.319344      32.499971      21425.868      3702.8448      2109.8194      4143.2923     -745.29223     -199.30817      1042.2267    
 217146000   247.5518      -421.55209     -338.64376     -421.57768      0              6584.7056      30.923         21.319344      32.368189      21338.99       8453.8077      5029.625       6270.684       840.68164      1532.5371     -114.4085     
 217148000   243.38112     -423.98114     -342.46963     -423.99592      0              6347.3461      30.923         21.319344      32.253666      21263.49       6755.8725      5447.1641      6839.0017     -249.87985     -1582.5871      640.83607    
 217150000   243.11892     -423.94408     -342.52038     -423.96041      0              5638.4938      30.923         21.319344      32.509117      21431.898      5772.7104      4696.9942      6445.7767      202.85855     -1178.1431      284.37815    
 217152000   247.65625     -423.56086     -340.61755     -423.58182      0              4384.9989      30.923         21.319344      32.499542      21425.585      3727.0257      3622.313       5805.6579     -1044.5952      964.69916      1313.6745    
 217154000   237.918       -423.3572      -343.67536     -423.37703      0              6076.9947      30.923         21.319344      32.506683      21430.294      7206.439       4684.9128      6339.6322     -730.45639     -1154.9011      270.02858    
 217156000   241.65018     -421.65713     -340.72533     -421.68094      0              4884.4559      30.923         21.319344      32.600178      21491.931      5230.3799      6070.453       3352.5349     -710.10336      1384.1827      147.81147    
 217158000   245.73742     -424.18466     -341.88399     -424.27288      0              8784.9415      30.923         21.319344      32.456673      21397.324      9694.3081      7682.2509      8978.2657      1341.1642     -768.09134     -659.84673    
 217160000   247.12812     -421.41871     -338.65228     -421.42006      0              6052.9903      30.923         21.319344      32.363885      21336.153      7083.2391      3722.3214      7353.4104     -183.18339     -1203.0972      1645.04      
 217162000   250.49716     -420.90289     -337.00812     -420.95716      0              9135.4935      30.923         21.319344      32.414245      21369.352      8758.4179      8551.4586      10096.604     -1257.6921      880.5565       103.53387    
 217164000   250.82315     -420.90801     -336.90407     -420.92869      0              4901.4095      30.923         21.319344      32.453446      21395.196      4805.263       5252.6799      4646.2856      358.00041     -3.517261       723.49682    
 217166000   243.03452     -422.30964     -340.91421     -422.34582      0              6460.7101      30.923         21.319344      32.554288      21461.677      7225.2526      6458.596       5698.2817      961.16501     -480.14111     -542.1544     
 217168000   245.5898      -421.70145     -339.45023     -421.72636      0              4449.6034      30.923         21.319344      32.669113      21537.377      5565.8082      5186.705       2596.2969      439.80376     -674.72729      805.52806    
 217170000   245.26189     -424.9565      -342.8151      -424.97382      0              5429.9915      30.923         21.319344      32.452438      21394.532      5318.349       5674.5482      5297.0772     -293.49094      1421.2839      1312.7727    
 217172000   250.04723     -423.99858     -340.25451     -424.01393      0              6288.0048      30.923         21.319344      32.436096      21383.758      7131.3853      5416.1294      6316.4997     -355.14942     -126.98343     -91.565072    
 217174000   245.04845     -423.33298     -341.26306     -423.34574      0              6937.784       30.923         21.319344      32.557731      21463.947      6932.6995      7456.0385      6424.6141      1694.6945      350.1137      -437.53475    
 217176000   244.88121     -419.14209     -337.12818     -419.16547      0              6395.6922      30.923         21.319344      32.5439        21454.829      5333.9541      7836.9075      6016.2151      851.19645      1055.393      -187.6868     
 217178000   239.0925      -424.59685     -344.52166     -424.68415      0              7153.1741      30.923         21.319344      32.675509      21541.593      6348.8013      6878.0115      8232.7097      54.724645      1336.952       1865.6442    
 217180000   246.94496     -423.9558      -341.25071     -423.96893      0              5835.8065      30.923         21.319344      32.722949      21572.868      5893.346       6535.7937      5078.2797      349.71871      282.3859       71.339371    
 217182000   246.56349     -426.03923     -343.4619      -426.07046      0              5287.5034      30.923         21.319344      32.480821      21413.243      6165.3084      3832.6524      5864.5496      1418.5879      293.01072      44.508528    
 217184000   243.36358     -424.95939     -343.45375     -424.97381      0              5216.2372      30.923         21.319344      32.367672      21338.649      4665.9181      5685.1964      5297.5971     -418.08216      346.70437      1941.7698    
 217186000   239.30705     -422.39628     -342.24923     -422.42961      0              5598.0825      30.923         21.319344      32.472125      21407.511      4741.9317      5885.5277      6166.788       103.37766     -1763.7231      1083.5887    
 217188000   243.42393     -420.99027     -339.46442     -420.99533      0              4789.2446      30.923         21.319344      32.54469       21455.349      5864.5553      3828.0538      4675.1247      387.24599      288.22759     -2110.7866    
 217190000   240.4798      -424.98209     -344.44228     -424.99053      0              5541.2786      30.923         21.319344      32.536004      21449.623      4880.5451      6657.3971      5085.8934      184.82815      102.98889      1272.9381    
 217192000   238.96019     -423.60121     -343.57033     -423.62838      0              5264.8868      30.923         21.319344      32.474116      21408.823      4467.0196      6100.94        5226.7007     -795.16493      670.65606     -9.417298     
 217194000   240.04793     -422.04774     -341.65256     -422.07615      0              4436.933       30.923         21.319344      32.493158      21421.377      4926.5163      4019.8279      4364.4548     -1250.042      -288.75921      1377.3705    
 217196000   247.15166     -422.67109     -339.89677     -422.69866      0              5340.6085      30.923         21.319344      32.60905       21497.78       4717.6294      5616.124       5688.0719     -1505.4341      33.950265     -299.23851    
 217198000   246.95759     -424.12481     -341.4155      -424.14225      0              5215.6663      30.923         21.319344      32.646024      21522.155      6135.6193      6717.5601      2793.8196     -842.81849      839.66582     -1147.5637    
 217200000   247.85062     -424.10075     -341.09234     -424.11585      0              4803.0053      30.923         21.319344      32.649013      21524.126      4780.9272      4268.9106      5359.1782     -799.0792       2619.4997     -642.49803    
 217202000   237.0336      -425.32622     -345.94058     -425.35356      0              6221.6454      30.923         21.319344      32.696916      21555.706      7517.0932      6900.7764      4247.0665     -786.15757      581.64216     -1289.5321    
 217204000   245.45312     -424.19701     -341.99156     -424.2112       0              4874.2501      30.923         21.319344      32.731542      21578.533      5120.7883      5356.5177      4145.4442      165.35167      184.84211     -365.17505    
 217206000   245.59946     -421.74541     -339.49095     -421.74948      0              5365.2171      30.923         21.319344      32.52797       21444.327      5865.8757      3923.2172      6306.5585     -533.36234     -571.61962     -286.84991    
 217208000   243.59017     -423.73796     -342.15644     -423.77635      0              5849.337       30.923         21.319344      32.391563      21354.399      5684.8934      7117.5278      4745.5897     -220.02053      317.32366     -1108.5999    
 217210000   238.65079     -421.22739     -341.30013     -421.2407       0              7010.8647      30.923         21.319344      32.42584       21376.997      6804.6124      4979.1749      9248.8067     -553.91555     -435.79446      1146.1738    
 217212000   241.05497     -421.98725     -341.2548      -422.00317      0              5913.0202      30.923         21.319344      32.500951      21426.515      6882.9487      3510.47        7345.6419     -135.49819     -1329.4019     -1531.0619    
 217214000   243.70319     -423.74737     -342.128       -423.77494      0              6880.0205      30.923         21.319344      32.494215      21422.074      7789.4196      4969.2691      7881.3728     -553.8164       588.16321     -593.73632    
 217216000   242.87344     -423.03232     -341.69084     -423.03453      0              6595.8293      30.923         21.319344      32.457807      21398.071      7569.0466      5524.2411      6694.2002      1260.0856      270.33999      865.56081    
 217218000   238.47818     -421.0705      -341.20105     -421.0888       0              6409.5455      30.923         21.319344      32.561947      21466.727      6173.3161      6602.7757      6452.5445      2050.3539      249.67256     -173.89947    
 217220000   245.76397     -422.78537     -340.47581     -422.78561      0              4937.8689      30.923         21.319344      32.573242      21474.173      4214.5974      6266.3929      4332.6162     -71.023711     -1380.6796      290.50034    
 217222000   244.94587     -420.93615     -338.90059     -420.95906      0              6076.802       30.923         21.319344      32.425111      21376.516      6584.0754      6618.2136      5028.1169      1232.3534     -1179.6418     -677.94859    
 217224000   246.21711     -422.88515     -340.42383     -422.87637      0              7828.5805      30.923         21.319344      32.381605      21347.835      9058.6861      7845.6936      6581.3619      1655.6331     -611.20094     -334.21794    
 217226000   248.16195     -423.58894     -340.47627     -423.61401      0              7111.928       30.923         21.319344      32.382152      21348.195      7025.3548      6581.1929      7729.2361     -834.74404      672.68412     -432.26746    
 217228000   243.7534      -420.04546     -338.40927     -420.05944      0              8128.9286      30.923         21.319344      32.489886      21419.22       9009.0133      8707.034       6670.7385      998.58587      450.49639     -560.71869    
 217230000   243.86762     -423.70849     -342.03405     -423.73002      0              6299.1304      30.923         21.319344      32.5303        21445.863      6951.0658      5213.6967      6732.6287      1179.0001     -1220.1577     -1930.7531    
 217232000   243.1304      -420.09287     -338.66533     -420.09381      0              6023.5753      30.923         21.319344      32.483015      21414.69       5790.9417      8363.5785      3916.2057      629.79203     -531.93525     -2055.6804    
 217234000   239.47527     -420.92151     -340.71812     -420.93396      0              6077.3946      30.923         21.319344      32.558521      21464.468      6515.8761      6286.9065      5429.4011      232.65944     -294.45614     -1164.7509    
 217236000   241.70703     -422.9342      -341.98337     -422.95318      0              5138.6365      30.923         21.319344      32.510473      21432.792      5303.4636      4980.0239      5132.422      -844.62468     -272.7077       913.80035    
 217238000   250.90776     -421.27847     -337.2462      -421.32368      0              6140.063       30.923         21.319344      32.480477      21413.017      6320.2091      6911.4726      5188.5072     -1679.2777      158.65181     -263.98936    
 217240000   245.21363     -422.11416     -339.98891     -422.11692      0              8224.0043      30.923         21.319344      32.467724      21404.609      7882.1095      8579.2835      8210.62       -110.94155      1249.8564      97.31565     
 217242000   246.93731     -422.09723     -339.39471     -422.07142      0              3971.1868      30.923         21.319344      32.526838      21443.581      3359.318       4651.3512      3902.8912      79.92353      -127.31986     -69.110569    
 217244000   241.57325     -425.6263      -344.72027     -425.66366      0              6782.5195      30.923         21.319344      32.52607       21443.075      8017.4832      4507.2503      7822.8248      392.50251      309.97232     -865.18741    
 217246000   248.48934     -420.27106     -337.04874     -420.29139      0              6384.8232      30.923         21.319344      32.413964      21369.168      4794.0825      8249.7791      6110.608      -1236.3391      822.32456      1411.9328    
 217248000   245.35625     -422.78942     -340.61641     -422.8039       0              7835.8714      30.923         21.319344      32.256019      21265.041      4764.936       8607.6634      10135.015      786.81065     -1135.7164     -1175.9831    
 217250000   247.74581     -421.9329      -338.95959     -421.93665      0              5242.7303      30.923         21.319344      32.372394      21341.762      5279.6817      4508.2946      5940.2146     -138.95798      729.79713      815.20169    
 217252000   237.07006     -424.00683     -344.60897     -424.02924      0              5006.4765      30.923         21.319344      32.538699      21451.4        5549.4336      4719.7054      4750.2906      2169.7413     -166.5445       168.43376    
 217254000   242.54094     -421.82038     -340.59026     -421.83906      0              4400.1919      30.923         21.319344      32.540308      21452.461      2548.9227      4722.1913      5929.4617     -97.621428     -1005.0874     -301.13348    
 217256000   248.57585     -423.41941     -340.16812     -423.4351       0              6025.8579      30.923         21.319344      32.603556      21494.158      5602.4314      4569.0663      7906.076       713.0481      -1862.7775      1342.8364    
 217258000   244.28647     -421.73616     -339.92143     -421.74945      0              4906.8631      30.923         21.319344      32.60005       21491.846      3640.1652      5690.8769      5389.5473      657.8405      -687.87276      212.70177    
 217260000   239.75591     -420.59321     -340.29583     -420.57362      0              5360.4487      30.923         21.319344      32.535027      21448.979      5495.0406      5624.6879      4961.6178      953.10864      487.68482     -94.873695    
 217262000   249.0625      -418.84155     -335.42727     -418.83975      0              6525.5257      30.923         21.319344      32.468245      21404.953      4181.731       8751.6898      6643.1562      1030.0409      564.83232     -858.37856    
 217264000   240.66806     -420.08985     -339.48698     -420.11448      0              6110.3723      30.923         21.319344      32.507141      21430.596      5479.8317      5310.4073      7540.8779      71.312703      167.8369      -96.762174    
 217266000   244.35823     -422.70126     -340.8625      -422.71818      0              6938.3712      30.923         21.319344      32.560943      21466.065      6668.5445      5710.4414      8436.1277      270.8156       797.47535      20.615277    
 217268000   244.39152     -421.50789     -339.65799     -421.52816      0              3549.5635      30.923         21.319344      32.673253      21540.106      3825.4308      3749.2937      3073.9659      1281.7199      1190.5761      73.107955    
 217270000   241.44781     -422.04255     -341.17853     -422.05813      0              4612.4674      30.923         21.319344      32.691181      21551.925      3624.7367      6024.6749      4187.9904      1892.0589     -427.97449      1211.6056    
 217272000   246.74157     -422.00659     -339.36962     -422.02845      0              6812.5774      30.923         21.319344      32.521358      21439.968      4743.6161      9692.4265      6001.6896     -182.88415     -2011.3923     -66.107338    
 217274000   246.16514     -423.64634     -341.20242     -423.69483      0              6490.7728      30.923         21.319344      32.44047       21386.642      8551.5809      4911.2975      6009.4401      403.49177      168.78823     -623.20632    
 217276000   239.50803     -420.7558      -340.54144     -420.77777      0              6659.8891      30.923         21.319344      32.394919      21356.612      7523.8136      5885.4888      6570.3649      268.26329     -977.49243      490.54469    
 217278000   244.85477     -420.2302      -338.22515     -420.23415      0              5911.7528      30.923         21.319344      32.581132      21479.374      6141.9979      5273.9722      6319.2884      1618.2205      777.46051     -1101.0468    
 217280000   239.31946     -424.86386     -344.71266     -424.8875       0              7250.6311      30.923         21.319344      32.60945       21498.043      7252.6188      7242.2465      7257.0281      2165.3386     -129.5106      -750.45423    
 217282000   238.18727     -419.69164     -339.91961     -419.71233      0              5249.5983      30.923         21.319344      32.639737      21518.01       4369.7863      6981.179       4397.8296     -719.65693      109.88849     -2463.0125    
 217284000   237.60398     -422.43913     -342.86247     -422.45025      0              5422.5648      30.923         21.319344      32.441497      21387.319      5714.6446      6947.0178      3606.0319     -694.69769     -693.32018     -702.18523    
 217286000   247.54556     -422.6122      -339.70597     -422.6261       0              5855.0593      30.923         21.319344      32.448047      21391.637      5787.6958      8219.8917      3557.5903      1175.7083     -2642.3759     -1003.6726    
 217288000   243.75331     -423.54862     -341.91246     -423.55347      0              5745.4584      30.923         21.319344      32.504577      21428.905      5207.5587      7208.5378      4820.2787      611.51321     -619.90111      247.25928    
 217290000   242.53493     -423.29333     -342.06523     -423.30352      0              6742.0546      30.923         21.319344      32.620209      21505.136      4670.9253      7691.0942      7864.1444      297.68863     -2170.5487      1443.1104    
 217292000   242.29685     -423.13535     -341.98697     -423.15925      0              6401.9306      30.923         21.319344      32.612472      21500.035      6547.7282      4686.0811      7971.9826      1225.5492     -1207.9374      1530.5406    
 217294000   238.42297     -422.38741     -342.53645     -422.39699      0              5591.266       30.923         21.319344      32.597577      21490.216      7895.9009      4521.1719      4356.7251      367.1095       507.96415      1742.8903    
 217296000   250.85462     -423.88098     -339.8665      -423.90089      0              7544.0352      30.923         21.319344      32.542982      21454.224      8725.3091      7319.1295      6587.6671     -164.11313     -687.26449      793.87861    
 217298000   243.89017     -423.74396     -342.06197     -423.77564      0              8078.6481      30.923         21.319344      32.440198      21386.463      6593.9314      7990.3452      9651.6675      424.63252      1483.3608     -171.74175    
 217300000   245.5387      -423.62179     -341.38768     -423.61638      0              5526.7996      30.923         21.319344      32.374115      21342.897      6098.0411      5555.3441      4927.0137      560.42387     -1285.6748     -1203.2534    
 217302000   243.44505     -424.55766     -343.02474     -424.58923      0              7340.5598      30.923         21.319344      32.500495      21426.213      6326.1001      8062.6952      7632.8841     -480.69446      149.01718     -1096.1524    
 217304000   247.89251     -420.94879     -337.92635     -420.95935      0              5650.7687      30.923         21.319344      32.501016      21426.558      4109.627       7226.596       5616.083       1209.7663      871.8147      -1174.1255    
 217306000   244.114       -421.19792     -339.44096     -421.19255      0              8197.1328      30.923         21.319344      32.408945      21365.859      7697.9253      8945.1101      7948.3629      412.72622      1143.9977      115.47604    
 217308000   242.3188      -421.63132     -340.4756      -421.64198      0              7384.4975      30.923         21.319344      32.534606      21448.702      9974.0488      6737.0543      5442.3896     -1776.817      -1820.4016      924.08194    
 217310000   246.62951     -422.8746      -340.27516     -422.87105      0              4790.86        30.923         21.319344      32.558278      21464.307      6867.9167      3846.393       3658.2702      125.93286     -296.43452     -90.072509    
 217312000   248.73428     -422.24984     -338.94548     -422.30873      0              7043.4017      30.923         21.319344      32.451684      21394.035      7477.0937      6210.1452      7442.9662      3336.5755      715.25444      187.08885    
 217314000   247.119       -423.00802     -340.24464     -423.02749      0              5726.7442      30.923         21.319344      32.450737      21393.41       4527.053       7914.2807      4738.8988      1514.4633      567.48319     -305.32796    
 217316000   240.43603     -425.57913     -345.05397     -425.60302      0              6695.7667      30.923         21.319344      32.381796      21347.961      6211.3321      7119.4853      6756.4826     -846.90002      432.86889     -1280.7198    
 217318000   244.10923     -425.6658      -343.91043     -425.67287      0              6157.3244      30.923         21.319344      32.607958      21497.059      7213.8273      6113.228       5144.9179     -438.91215     -110.08586     -436.93797    
 217320000   242.37714     -420.44496     -339.2697      -420.44614      0              5140.6404      30.923         21.319344      32.498724      21425.047      5056.0025      5153.3368      5212.5818     -145.78077     -300.2128      -587.7329     
 217322000   242.41184     -421.34182     -340.15494     -421.33431      0              4970.0622      30.923         21.319344      32.609599      21498.142      4928.7779      6501.3609      3480.0479      1128.7506     -859.50113     -688.21228    
 217324000   241.83254     -420.98171     -339.98884     -420.99952      0              6854.3852      30.923         21.319344      32.626108      21509.025      6543.2147      8127.3258      5892.6153     -1085.0804     -880.4054      -590.3699     
 217326000   247.19054     -421.08164     -338.29431     -421.09224      0              3642.6491      30.923         21.319344      32.67415       21540.697      4547.1963      5436.8487      943.90225      563.8811       375.45057     -1126.3027    
 217328000   238.50715     -424.25287     -344.37371     -424.28202      0              7092.3705      30.923         21.319344      32.512925      21434.409      5509.5736      7985.2073      7782.3306     -376.88078     -190.85465     -127.02148    
 217330000   247.31496     -420.54348     -337.71447     -420.55646      0              6124.4803      30.923         21.319344      32.563153      21467.522      6895.5691      5880.5974      5597.2743      1409.7786      1348.9377     -743.84654    
 217332000   251.92416     -424.82972     -340.45703     -424.85175      0              6391.5043      30.923         21.319344      32.649442      21524.408      7187.7039      6454.8485      5531.9604     -1359.0705      324.50538      292.71097    
 217334000   247.44905     -422.94153     -340.06762     -422.97008      0              4262.2863      30.923         21.319344      32.580654      21479.06       3489.4239      3077.786       6219.649      -785.25211      112.16761      930.11532    
 217336000   247.97379     -422.64558     -339.59593     -422.6477       0              4102.7026      30.923         21.319344      32.789269      21616.59       5342.9397      3134.6211      3830.5471     -520.52787     -475.98757     -326.38916    
 217338000   249.99131     -422.78089     -339.05554     -422.80008      0              4032.2975      30.923         21.319344      32.782331      21612.016      4274.5637      5222.5127      2599.8161      514.29034     -721.09506      285.04305    
 217340000   244.46652     -419.97416     -338.09914     -419.99591      0              5847.79        30.923         21.319344      32.487674      21417.761      4851.4334      6586.2295      6105.7072      724.96801     -637.663       -1169.4261    
 217342000   250.81066     -422.3416      -338.34184     -422.34124      0              8258.7935      30.923         21.319344      32.492234      21420.768      7592.2498      8254.9815      8929.1494     -187.43689      1401.4836      1047.4208    
 217344000   248.3696      -419.93481     -336.75259     -419.942        0              7204.7128      30.923         21.319344      32.558154      21464.226      8228.6585      4530.095       8855.385      -718.88613     -569.98524      1724.6349    
 217346000   245.12379     -420.89734     -338.80219     -420.90168      0              7412.0346      30.923         21.319344      32.486863      21417.227      7580.627       6559.84        8095.637       2524.4153     -155.80995      2019.8145    
 217348000   235.07065     -420.65857     -341.93034     -420.64579      0              6420.93        30.923         21.319344      32.699387      21557.335      6249.565       5605.1034      7408.1216      779.6542       2753.3052      1830.2206    
 217350000   240.19673     -421.49356     -341.04854     -421.49231      0              6290.7699      30.923         21.319344      32.769086      21603.285      7041.8931      5520.2949      6310.1219      528.92584      745.2527       1820.0708    
 217352000   243.56034     -423.28722     -341.71569     -423.29229      0              6089.7919      30.923         21.319344      32.656308      21528.935      4617.4059      5786.2787      7865.691       448.82134     -790.05225      349.84676    
 217354000   249.36053     -421.58651     -338.07242     -421.59687      0              5661.5824      30.923         21.319344      32.581908      21479.886      4625.4446      5646.2728      6713.0297     -179.62658      260.0882       718.39818    
 217356000   244.93441     -419.89411     -337.86239     -419.90375      0              5989.3397      30.923         21.319344      32.691161      21551.912      3391.9877      7456.2293      7119.8021      875.12959      661.34736      917.46587    
 217358000   250.46184     -419.58699     -335.70406     -419.57636      0              5201.5747      30.923         21.319344      32.572305      21473.555      6025.6531      4436.2425      5142.8285     -417.79754      822.61918     -580.36864    
 217360000   244.40022     -419.47606     -337.62324     -419.48215      0              5491.8953      30.923         21.319344      32.628829      21510.819      7569.7719      4693.2163      4212.6977      413.85497     -182.90641      1201.3856    
 217362000   244.24524     -422.80631     -341.0054      -422.82257      0              6176.6576      30.923         21.319344      32.553659      21461.263      5399.1991      6214.6197      6916.1541      207.54036     -688.37473      1407.4991    
 217364000   247.74773     -418.99549     -336.02154     -418.97157      0              7414.9566      30.923         21.319344      32.643371      21520.406      4722.5501      7770.5104      9751.8093      309.87743      1531.9153      290.9215     
 217366000   241.90033     -421.64558     -340.63        -421.63962      0              5462.7703      30.923         21.319344      32.690505      21551.479      5959.3322      5785.927       4643.0518     -1771.7688     -1942.7297      251.65091    
 217368000   240.9538      -419.90839     -339.20982     -419.89411      0              5355.3585      30.923         21.319344      32.656705      21529.197      4715.0892      5408.7534      5942.2329      9.0508172     -1073.4844      1423.5381    
 217370000   242.85631     -421.52868     -340.19294     -421.53458      0              5035.4533      30.923         21.319344      32.642499      21519.831      4556.3294      6273.0247      4277.0059     -905.31197     -575.7481      -420.85488    
 217372000   240.19025     -422.55133     -342.10849     -422.5653       0              6047.0726      30.923         21.319344      32.593406      21487.466      7672.2952      4829.6842      5639.2385      1122.0443      1123.7095      566.36138    
 217374000   239.74289     -421.5111      -341.21808     -421.52192      0              5480.4803      30.923         21.319344      32.704497      21560.704      4274.7924      6099.2091      6067.4395     -194.09502     -128.33857     -1519.1837    
 217376000   252.52372     -420.60832     -336.03483     -420.5997       0              6662.5605      30.923         21.319344      32.565234      21468.893      5964.4569      7734.4149      6288.8096     -1009.0179     -1334.6741     -197.52056    
 217378000   241.35323     -420.87115     -340.03881     -420.84269      0              7021.4001      30.923         21.319344      32.492288      21420.803      5650.2192      6054.0958      9359.8852     -797.59314     -1744.8464      1243.2072    
 217380000   248.74062     -420.10363     -336.79715     -420.06876      0              5254.4737      30.923         21.319344      32.865214      21666.658      3101.6529      7487.3588      5174.4094      623.30447      591.80748      1338.6486    
 217382000   244.35751     -423.47364     -341.63512     -423.43348      0              4835.5776      30.923         21.319344      32.767863      21602.478      4481.217       4293.0835      5732.4323     -371.03047     -1304.8542     -646.73704    
 217384000   240.00176     -423.14941     -342.7697      -423.10419      0              6684.5803      30.923         21.319344      32.7321        21578.901      7477.1142      6814.4788      5762.148       248.14405     -1716.5276      1009.6321    
 217386000   248.50002     -421.8046      -338.5787      -421.76891      0              5668.7265      30.923         21.319344      32.7348        21580.681      5151.426       4917.62        6937.1335     -936.12153      75.572033      361.74841    
 217388000   250.16957     -421.82578     -338.04073     -421.80588      0              5525.0246      30.923         21.319344      32.634934      21514.844      5194.5648      5739.2347      5641.2744     -1164.152      -1410.9346     -581.65201    
 217390000   246.48866     -421.82949     -339.27722     -421.81671      0              6529.5892      30.923         21.319344      32.554304      21461.688      6105.4416      6639.4497      6843.8762     -1348.2581     -330.88601     -968.28656    
 217392000   249.14392     -420.9944      -337.55285     -420.94922      0              4351.8431      30.923         21.319344      32.709426      21563.953      4687.9706      3226.6302      5140.9286     -758.89826     -989.23583      762.31468    
 217394000   248.21225     -421.44976     -338.32025     -421.43328      0              4561.2649      30.923         21.319344      32.690991      21551.8        6538.2371      4757.9996      2387.5582     -93.259847     -724.78986      913.51623    
 217396000   245.52808     -419.72602     -337.49547     -419.69339      0              6207.4335      30.923         21.319344      32.544765      21455.399      7111.6507      5333.5031      6177.1467     -159.80912      712.71959      156.13339    
 217398000   246.42061     -421.12879     -338.59931     -421.07561      0              4941.3634      30.923         21.319344      32.67142       21538.898      6083.1904      5635.8903      3105.0096      685.20165     -1041.7752      2557.2184    
 217400000   237.63759     -420.56491     -340.97698     -420.53392      0              5607.944       30.923         21.319344      32.55352       21461.171      4891.513       5105.4826      6826.8364     -104.03368      81.035794     -425.11122    
 217402000   249.00188     -420.19912     -336.80514     -420.20068      0              6737.9457      30.923         21.319344      32.399239      21359.46       6616.3397      6353.4282      7244.0691      1708.2601     -1412.748       321.68216    
 217404000   245.78424     -419.12685     -336.81051     -419.13571      0              6686.4057      30.923         21.319344      32.409572      21366.272      7447.6058      6415.782       6195.8292     -726.05367     -684.98292      757.51932    
 217406000   244.83701     -424.58486     -342.58575     -424.58644      0              7587.4192      30.923         21.319344      32.522145      21440.487      7056.2763      8085.8507      7620.1304      147.13705      119.57062      159.09843    
 217408000   252.80426     -420.34782     -335.68038     -420.35103      0              5631.5092      30.923         21.319344      32.654552      21527.777      6259.8404      4651.6448      5983.0424     -2152.0322     -956.02572     -577.04835    
 217410000   239.40779     -421.81807     -341.63728     -421.83242      0              6619.4311      30.923         21.319344      32.644801      21521.348      4450.038       8391.3667      7016.8886      1194.3155     -20.13161       125.00428    
 217412000   242.26244     -421.93557     -340.79872     -421.95308      0              6171.7756      30.923         21.319344      32.478712      21411.853      8399.957       2606.1897      7509.1801     -90.353789      1894.4952      979.7548     
 217414000   246.51612     -421.67502     -339.11356     -421.68159      0              7368.6596      30.923         21.319344      32.67724       21542.734      7884.8349      6195.5652      8025.5788      938.01645     -1571.9636     -58.980524    
 217416000   238.9485      -421.01487     -340.9879      -421.02651      0              5259.0745      30.923         21.319344      32.654089      21527.472      5074.3652      7416.0533      3286.8049     -23.910149      311.29526      287.65179    
 217418000   239.72061     -419.54945     -339.26389     -419.50511      0              4806.1378      30.923         21.319344      32.814234      21633.049      5300.0636      5082.9782      4035.3714     -932.07473     -496.20427      567.73488    
 217420000   250.13489     -421.15132     -337.37789     -421.14306      0              6032.1044      30.923         21.319344      32.651115      21525.511      6590.0157      5735.1343      5771.1632     -115.90841      53.541061     -18.804591    
 217422000   248.10959     -421.42392     -338.32879     -421.39893      0              5105.4203      30.923         21.319344      32.667889      21536.57       3811.2659      5123.7332      6381.2617     -602.72334     -469.12414      1193.3099    
 217424000   249.94826     -420.3992      -336.68827     -420.35427      0              6826.3134      30.923         21.319344      32.609267      21497.923      6508.4588      6955.5327      7014.9488      653.88962     -1689.1929      480.2939     
 217426000   251.19073     -423.40327     -339.27622     -423.38603      0              7191.0237      30.923         21.319344      32.614496      21501.37       5585.9064      7552.8522      8434.3124     -1514.6124      999.46526     -445.82254    
 217428000   245.36744     -421.31665     -339.1399      -421.3002       0              7263.1883      30.923         21.319344      32.670838      21538.514      9183.8135      4913.0717      7692.6797     -671.66572     -2230.8098      1479.2415    
 217430000   243.32323     -419.98509     -338.49297     -419.98382      0              5207.1602      30.923         21.319344      32.651692      21525.891      3166.6889      7454.7811      5000.0106     -1062.4831      512.00368     -593.66891    
 217432000   244.30234     -419.11664     -337.2966      -419.08         0              6822.7972      30.923         21.319344      32.649838      21524.669      7464.9443      7209.1688      5794.2785     -941.73138      180.98412      579.99227    
 217434000   244.45815     -422.90222     -341.03        -422.8713       0              6452.7404      30.923         21.319344      32.836792      21647.92       6513.9456      6866.1186      5978.1568      352.40294     -859.91819     -288.65355    
 217436000   247.36547     -421.31268     -338.46676     -421.26231      0              7483.5251      30.923         21.319344      32.635781      21515.402      9318.789       6595.2119      6536.5743      127.04707     -1430.3877      1065.1582    
 217438000   247.35238     -419.2165      -336.37497     -419.18752      0              6008.5489      30.923         21.319344      32.765107      21600.661      7170.6054      4291.2878      6563.7535     -596.06382     -812.67039      1832.4283    
 217440000   244.62644     -421.03873     -339.11015     -421.01654      0              6364.4752      30.923         21.319344      32.753779      21593.193      6495.7491      6436.1882      6161.4882      1447.5595     -709.65638     -275.27576    
 217442000   249.60381     -422.7981      -339.20253     -422.77123      0              7035.93        30.923         21.319344      32.556723      21463.283      8701.6595      6235.5953      6170.5351      367.35675      1298.1601     -890.43705    
 217444000   250.07982     -422.96588     -339.21089     -422.93897      0              5319.0245      30.923         21.319344      32.529737      21445.492      5433.1935      5223.1884      5300.6918      761.56998     -781.62821     -1032.4157    
 217446000   245.23619     -419.03745     -336.90465     -419.00079      0              6525.0264      30.923         21.319344      32.615982      21502.35       6410.3898      6065.2603      7099.4292      1453.3641      290.91183      207.59991    
 217448000   238.97553     -421.35008     -341.31406     -421.31862      0              5192.0698      30.923         21.319344      32.565428      21469.021      5237.3535      5674.649       4664.2068      940.03179     -746.85887     -139.51388    
 217450000   249.46279     -422.04885     -338.5005      -422.02522      0              4521.055       30.923         21.319344      32.704337      21560.598      4930.9471      4964.4939      3667.7241      773.39914      534.346       -716.78583    
 217452000   250.55925     -421.01119     -337.09563     -420.96635      0              7015.6447      30.923         21.319344      32.548584      21457.917      8300.4404      6463.867       6282.6267     -1479.5306     -15.77063      -357.53465    
 217454000   244.97694     -420.61078     -338.56481     -420.59026      0              4763.4271      30.923         21.319344      32.502244      21427.367      4498.134       7257.3602      2534.7872      271.95196     -1443.2445     -594.02408    
 217456000   244.08719     -421.30144     -339.55346     -421.29571      0              8822.7029      30.923         21.319344      32.448217      21391.749      9684.4515      8092.6265      8691.0307     -572.21768     -248.48574      637.34902    
 217458000   246.1891      -421.51649     -339.06456     -421.51014      0              3618.6148      30.923         21.319344      32.440422      21386.61       2521.9769      4578.5043      3755.3631     -2485.3641      517.58912     -1073.4957    
 217460000   241.86582     -420.16949     -339.16548     -420.13401      0              6177.5221      30.923         21.319344      32.614545      21501.402      6621.6902      5126.5207      6784.3555     -694.69615     -357.08176      397.31359    
 217462000   243.22508     -421.98235     -340.5231      -421.94878      0              4100.1805      30.923         21.319344      32.552538      21460.523      3716.7786      869.98631      7713.7768     -959.67831     -38.729827      26.83743     
 217464000   246.16167     -420.77349     -338.33074     -420.7295       0              4785.5293      30.923         21.319344      32.6895        21550.817      5016.1062      5670.026       3670.4557      326.70352      1041.8589      755.54071    
 217466000   239.2486      -422.83895     -342.71148     -422.79491      0              6039.4876      30.923         21.319344      32.545182      21455.674      5962.5419      6616.9188      5539.0022      349.83735      1126.3695      723.4168     
 217468000   244.18117     -419.60084     -337.82138     -419.54912      0              5364.5822      30.923         21.319344      32.480801      21413.23       5121.2587      4842.4928      6129.995       650.61009      356.23418      1487.6124    
 217470000   240.4945      -418.91378     -338.36903     -418.85013      0              5664.2453      30.923         21.319344      32.683042      21546.559      6705.5852      5761.2698      4525.8808     -613.13055     -42.665048     -109.03788    
 217472000   244.07107     -419.84901     -338.10643     -419.77769      0              6751.3289      30.923         21.319344      32.694764      21554.287      8422.311       5753.8419      6077.8337      35.80387       174.78929     -339.28633    
 217474000   243.82242     -420.93627     -339.27696     -420.89136      0              4873.8483      30.923         21.319344      32.7028        21559.585      5225.056       4622.8433      4773.6456      1034.7717      112.6027      -1233.3753    
 217476000   249.61122     -422.99595     -339.3979      -422.95634      0              6656.5009      30.923         21.319344      32.537688      21450.733      5583.5281      7262.0183      7123.9564      1011.5565     -1043.6227      2515.9874    
 217478000   241.13477     -418.55617     -337.79699     -418.52959      0              6530.872       30.923         21.319344      32.416599      21370.905      6078.918       4045.2922      9468.4058      828.89618     -500.29974      145.44118    
 217480000   246.33772     -422.60567     -340.10395     -422.57563      0              6263.4013      30.923         21.319344      32.485496      21416.325      5240.8102      6556.6602      6992.7335      964.50378     -1291.6951      1472.0869    
 217482000   243.53674     -421.02552     -339.46189     -421.01197      0              6105.3161      30.923         21.319344      32.648531      21523.808      5030.61        7759.6769      5525.6612     -422.49696      223.58106      331.55221    
 217484000   241.68066     -422.96467     -342.02267     -422.96912      0              5847.1053      30.923         21.319344      32.515734      21436.26       6243.6906      6418.4848      4879.1405     -405.80883      204.7746       1129.4956    
 217486000   242.81709     -425.36922     -344.04661     -425.34297      0              6587.4228      30.923         21.319344      32.596481      21489.493      6051.3594      7019.6869      6691.2221      239.15659     -57.229606      962.50264    
 217488000   239.30896     -417.82313     -337.67544     -417.79616      0              5234.8383      30.923         21.319344      32.609524      21498.092      4962.1959      6539.4619      4202.857      -32.540325     -559.86675      85.019957    
 217490000   240.7582      -421.46019     -340.82714     -421.41768      0              4707.3246      30.923         21.319344      32.75185       21591.922      3098.2139      6249.4172      4774.3425      152.09368      1791.2947     -58.802974    
 217492000   246.34018     -420.53649     -338.03395     -420.50378      0              6019.6287      30.923         21.319344      32.622065      21506.36       7286.2935      4625.9978      6146.5949     -603.84908     -1371.14        928.63684    
 217494000   244.68261     -421.3346      -339.3872      -421.33328      0              6412.0944      30.923         21.319344      32.544607      21455.295      6543.1625      6119.4155      6573.7052      728.45485     -262.20238      1190.509     
 217496000   254.09465     -420.6309      -335.53129     -420.60617      0              5582.393       30.923         21.319344      32.569072      21471.424      2270.2306      5432.1711      9044.7772      923.72816      34.165481      1405.1261    
 217498000   237.30741     -420.86794     -341.3906      -420.87027      0              7268.9262      30.923         21.319344      32.628833      21510.821      7151.6485      6352.5457      8302.5844      1103.7534      997.4624       468.04513    
 217500000   248.66057     -423.14206     -339.86239     -423.13356      0              5377.4145      30.923         21.319344      32.586888      21483.169      3409.7643      6588.9732      6133.5061     -525.3994      -1044.2159     -510.49748    
 217502000   247.90334     -425.60276     -342.5767      -425.63132      0              8716.2132      30.923         21.319344      32.552896      21460.76       8371.5886      9169.9405      8607.1106     -361.57179     -146.69412      927.61189    
 217504000   241.40816     -420.95011     -340.09937     -420.93356      0              8754.3893      30.923         21.319344      32.501622      21426.957      8569.5075      9711.3471      7982.3134     -1512.8289     -3.6383569      1059.2629    
 217506000   247.73924     -421.49428     -338.52318     -421.47189      0              5042.0055      30.923         21.319344      32.670038      21537.987      5881.067       6199.3342      3045.6154     -727.38673      28.52881       1992.7222    
 217508000   243.11386     -420.91135     -339.48935     -420.87445      0              5754.4056      30.923         21.319344      32.713916      21566.913      4739.9158      5657.9307      6865.3704      880.96686      802.89228      1877.4156    
 217510000   244.37946     -422.9792      -341.13334     -422.93089      0              7638.1351      30.923         21.319344      32.730136      21577.606      9791.824       7557.3133      5565.2678     -76.752631     -674.1525      -1117.7719    
 217512000   237.61978     -424.22442     -344.64246     -424.21259      0              7482.5403      30.923         21.319344      32.737594      21582.523      8466.7718      6876.9154      7103.9337     -570.85836      998.85946      676.41032    
 217514000   241.56283     -419.29965     -338.39711     -419.27267      0              7584.4231      30.923         21.319344      32.70984       21564.226      7355.1244      7931.3584      7466.7866     -867.76054     -1202.1745      736.03565    
 217516000   239.10816     -418.96494     -338.8845      -418.92618      0              5831.5573      30.923         21.319344      32.632724      21513.387      7033.6486      4969.767       5491.2562      269.93446     -1551.7913      539.88234    
 217518000   240.15803     -419.33705     -338.90499     -419.29715      0              5523.0445      30.923         21.319344      32.581733      21479.77       6515.3748      4583.4606      5470.2983      810.90454      255.58364      1732.908     
 217520000   246.06145     -421.55636     -339.14717     -421.54159      0              6839.4584      30.923         21.319344      32.5182        21437.886      6646.4908      6398.7221      7473.1621      430.64673      829.75435      114.73446    
 217522000   249.39446     -419.56502     -336.03956     -419.55727      0              7174.8092      30.923         21.319344      32.509099      21431.886      7898.6654      5840.0567      7785.7054      483.78741     -53.456144     -343.28966    
 217524000   249.51862     -418.33678     -334.76975     -418.31832      0              7305.3407      30.923         21.319344      32.410846      21367.112      7462.5658      7142.9106      7310.5457     -357.78052     -22.631469      241.656      
 217526000   239.00452     -421.49062     -341.44489     -421.48127      0              7074.619       30.923         21.319344      32.608646      21497.513      6214.7917      7097.4139      7911.6516     -2177.6432     -223.36716     -671.53865    
 217528000   242.39412     -421.52277     -340.34182     -421.50244      0              7229.3872      30.923         21.319344      32.489048      21418.668      6992.7539      8440.6993      6254.7083     -895.45663     -811.35614      336.30346    
 217530000   249.37356     -421.18366     -337.6652      -421.15431      0              6891.8933      30.923         21.319344      32.574446      21474.967      7240.6855      5651.5255      7783.469      -581.19264     -162.78561      164.50901    
 217532000   249.16846     -419.42497     -335.9752      -419.41173      0              7127.2329      30.923         21.319344      32.385155      21350.175      7347.1272      6510.3358      7524.2358      1986.582      -820.97143     -1308.2567    
 217534000   247.8067      -420.29023     -337.29653     -420.22706      0              7385.6834      30.923         21.319344      32.587376      21483.491      6602.7909      9220.8598      6333.3996      431.49565     -719.42057      581.53163    
 217536000   246.52094     -418.67232     -336.10924     -418.63528      0              6379.8812      30.923         21.319344      32.550232      21459.003      5914.4178      7518.3266      5706.8993      1513.9794     -667.83533     -531.45251    
 217538000   244.29284     -419.31295     -337.4961      -419.29959      0              7015.4168      30.923         21.319344      32.634454      21514.527      7779.2453      6965.0401      6301.965      -98.254147      146.66129      915.42156    
 217540000   243.24176     -421.47704     -340.0122      -421.46186      0              5578.8116      30.923         21.319344      32.605653      21495.54       5240.5965      5239.6757      6256.1625      1404.0506     -572.90849      605.64236    
 217542000   241.81253     -419.65726     -338.67109     -419.6338       0              5055.2793      30.923         21.319344      32.525774      21442.879      6589.081       4871.7999      3704.9568     -368.84591     -1481.8594      703.93723    
 217544000   245.96212     -421.84704     -339.47112     -421.81519      0              4996.1212      30.923         21.319344      32.56849       21471.04       4419.6223      6129.6915      4439.0499     -328.7535       364.10536      278.24389    
 217546000   244.46306     -420.52382     -338.64996     -420.51         0              5899.7259      30.923         21.319344      32.633038      21513.594      5364.8304      7223.7151      5110.6323      2463.8562     -1045.2956      166.96527    
 217548000   245.47957     -423.47317     -341.25886     -423.4378       0              4325.3205      30.923         21.319344      32.453041      21394.929      5436.6759      2639.3714      4899.9141     -270.7533      -1021.657      -687.24811    
 217550000   242.34086     -421.29651     -340.13339     -421.26966      0              6932.115       30.923         21.319344      32.468085      21404.847      6700.6688      8362.3665      5733.3096      11.3437       -1071.5955      640.47334    
 217552000   242.56247     -417.43655     -336.19921     -417.36964      0              7245.4928      30.923         21.319344      32.44431       21389.173      7063.864       7799.2836      6873.3306      705.61614     -1052.1883     -682.71205    
 217554000   238.87082     -421.838       -341.83705     -421.79884      0              5941.3068      30.923         21.319344      32.4781        21411.449      5096.4837      5678.2761      7049.1604      930.25943      667.2492      -269.92603    
 217556000   243.81266     -419.65727     -338.00123     -419.59135      0              5464.9683      30.923         21.319344      32.663815      21533.884      5002.2072      3664.5813      7728.1165      1353.3308     -372.11296     -1018.5029    
 217558000   244.68433     -421.60407     -339.6561      -421.58281      0              6170.235       30.923         21.319344      32.6364        21515.81       6277.2934      6620.0115      5613.4        -879.90951     -308.22266     -197.98841    
 217560000   247.48503     -419.64064     -336.75468     -419.5619       0              8405.1018      30.923         21.319344      32.580924      21479.237      9033.954       6287.3416      9894.01       -93.933459      435.4567       510.51252    
 217562000   240.50682     -420.86925     -340.32038     -420.84044      0              7055.2198      30.923         21.319344      32.487716      21417.789      4187.6949      7701.8177      9276.1467      560.85612      291.86788      1223.8559    
 217564000   241.60157     -422.38464     -341.46913     -422.34822      0              5901.2026      30.923         21.319344      32.582407      21480.215      3720.1078      6027.9234      7955.5766      849.5525      -85.356312      585.08748    
 217566000   242.505       -421.06588     -339.84779     -421.04073      0              7025.3349      30.923         21.319344      32.727585      21575.925      7050.8967      6734.7299      7290.378      -422.73314     -1239.5208     -119.85212    
 217568000   250.33459     -419.69845     -335.85813     -419.66067      0              3608.7428      30.923         21.319344      32.701831      21558.946      3259.4926      3250.1983      4316.5376      35.931514     -659.54701      572.56341    
 217570000   245.22758     -423.4542      -341.32428     -423.42819      0              6920.0864      30.923         21.319344      32.610187      21498.529      7390.6865      5453.7681      7915.8046     -711.48426      386.52985      790.12321    
 217572000   248.06325     -422.95875     -339.87913     -422.94249      0              7486.4365      30.923         21.319344      32.5796        21478.364      8764.6447      6529.219       7165.4458      338.44769     -945.65368     -268.06383    
 217574000   240.02956     -417.65929     -337.27027     -417.62126      0              6063.3355      30.923         21.319344      32.643355      21520.395      6143.0228      6743.3582      5303.6254     -307.35709      352.73821      154.1051     
 217576000   243.07636     -418.46971     -337.06027     -418.40522      0              5539.1902      30.923         21.319344      32.745267      21587.581      5303.8369      6718.9256      4594.8082     -1723.0356      1112.9912      546.80826    
 217578000   247.78721     -420.99735     -338.01018     -420.97405      0              6500.7953      30.923         21.319344      32.525267      21442.545      6841.695       6238.4473      6422.2436      1185.7376     -4.2967896      186.70559    
 217580000   256.21944     -419.95737     -334.14614     -419.91008      0              5307.7406      30.923         21.319344      32.706299      21561.892      5905.1452      3753.4767      6264.5998      149.64353     -1100.6614      947.75643    
 217582000   247.66959     -420.82602     -337.87824     -420.80921      0              4659.9637      30.923         21.319344      32.820396      21637.111      4705.1063      4870.2973      4404.4875      955.69041      274.71056      637.52639    
 217584000   243.91972     -418.50964     -336.81775     -418.46185      0              6483.3535      30.923         21.319344      32.697211      21555.9        6161.5899      7175.2585      6113.2121     -268.33607      401.49275      199.4663     
 217586000   245.44145     -421.31849     -339.11695     -421.28873      0              6345.7795      30.923         21.319344      32.732207      21578.972      5505.6677      6530.1379      7001.5329      687.71791      100.31374      625.02241    
 217588000   245.64819     -420.82083     -338.55005     -420.77556      0              6278.3638      30.923         21.319344      32.692396      21552.726      5211.3906      6825.7678      6797.933       165.755       -1062.6514      1408.6541    
 217590000   240.02521     -420.55932     -340.17175     -420.51855      0              4729.7073      30.923         21.319344      32.730511      21577.853      2013.994       7361.954       4813.1738      101.28321      1270.1349     -773.42348    
 217592000   242.61314     -422.16345     -340.90915     -422.15806      0              5694.0604      30.923         21.319344      32.667128      21536.068      5129.1949      5026.0022      6926.9842      448.60371     -1241.513       1661.3941    
 217594000   239.64191     -423.31536     -343.05616     -423.30169      0              7415.1628      30.923         21.319344      32.563259      21467.591      6161.0421      6970.9216      9113.5246     -188.18816     -724.29198      334.71195    
 217596000   243.50374     -422.42421     -340.87164     -422.39335      0              5833.1278      30.923         21.319344      32.589455      21484.861      6955.0379      5031.1706      5513.1748     -189.1584       487.12971      1032.9151    
 217598000   248.60159     -419.67143     -336.41152     -419.63642      0              6782.5513      30.923         21.319344      32.53775       21450.775      8225.5857      4801.758       7320.3104     -1201.0978      1348.8476     -237.42024    
 217600000   243.40132     -422.07307     -340.5548      -422.05511      0              5996.1626      30.923         21.319344      32.514686      21435.569      7070.5259      6239.8522      4678.1096     -772.15352      1824.0712     -1237.1503    
 217602000   246.14258     -422.05032     -339.61396     -422.02416      0              6932.3897      30.923         21.319344      32.562142      21466.855      8177.159       6108.8444      6511.1656     -92.128146      1155.4594      743.50519    
 217604000   248.29484     -418.95996     -335.80278     -418.92755      0              5274.223       30.923         21.319344      32.78434       21613.341      5506.7697      7064.5684      3251.331       759.01763      769.26982      1194.1981    
 217606000   241.1239      -421.89187     -341.13634     -421.87816      0              5419.7413      30.923         21.319344      32.711767      21565.496      5587.2474      5363.8227      5308.1539      1682.464      -608.84082      408.14205    
 217608000   248.792       -422.73411     -339.41042     -422.73862      0              5189.4998      30.923         21.319344      32.59045       21485.517      6210.0943      3921.9821      5436.4229     -920.32604      129.27449      2545.4802    
 217610000   237.47843     -421.64583     -342.1112      -421.61761      0              6443.3406      30.923         21.319344      32.67215       21539.379      6461.5266      6755.3272      6113.1679     -1771.3206     -84.255239      33.09069     
 217612000   245.9217      -419.2503      -336.88791     -419.20476      0              5935.2746      30.923         21.319344      32.654886      21527.997      6180.7017      6229.8865      5395.2356      809.10754     -722.45535     -604.41232    
 217614000   254.29544     -421.56259     -336.39574     -421.51694      0              6847.6657      30.923         21.319344      32.658247      21530.213      8198.4466      5100.3477      7244.2029     -536.71819     -284.03543      46.762136    
 217616000   243.91054     -422.15069     -340.46187     -422.15961      0              4462.0461      30.923         21.319344      32.605805      21495.64       3062.1328      4793.6219      5530.3837     -208.64686     -878.56442      289.75793    
 217618000   245.10956     -421.96817     -339.87778     -421.95208      0              6476.3735      30.923         21.319344      32.635841      21515.442      5158.8217      6525.4         7744.8986      890.75551      923.59971      767.03363    
 217620000   245.74973     -422.53723     -340.23244     -422.53618      0              5201.3596      30.923         21.319344      32.526744      21443.519      5548.6753      5374.4056      4680.998      -50.000123      818.26164      811.833      
 217622000   248.69157     -419.53679     -336.24674     -419.50619      0              6316.5478      30.923         21.319344      32.537138      21450.371      6616.1922      5342.0408      6991.4103      1641.5054      112.61233      457.25077    
 217624000   245.08662     -422.24256     -340.15985     -422.21866      0              7833.5848      30.923         21.319344      32.695512      21554.78       7493.616       9504.1872      6502.9513      2547.8677      863.9304       1158.2085    
 217626000   241.6311      -419.68136     -338.75595     -419.64814      0              6175.0488      30.923         21.319344      32.54552       21455.897      6763.0068      6133.9284      5628.2112     -1243.7626      1159.419      -282.82949    
 217628000   237.6852      -420.37231     -340.76844     -420.30011      0              6109.3503      30.923         21.319344      32.515435      21436.063      5756.7919      7814.5187      4756.7403      502.78742     -106.57025      948.22026    
 217630000   246.62799     -419.60237     -337.00345     -419.55905      0              6206.7962      30.923         21.319344      32.473556      21408.454      6955.2867      4363.4761      7301.6258     -1856.8075     -523.43955      69.429444    
 217632000   245.91682     -420.56942     -338.20867     -420.53854      0              8964.4673      30.923         21.319344      32.38676       21351.233      9396.6459      10221.004      7275.752      -425.16034     -820.04795      135.10744    
 217634000   249.74907     -420.45274     -336.80852     -420.41698      0              6640.7375      30.923         21.319344      32.377696      21345.258      6758.5113      5315.4258      7848.2754      1991.0311      105.07884      696.37772    
 217636000   246.37903     -420.18611     -337.67055     -420.13835      0              5799.4627      30.923         21.319344      32.488904      21418.572      5921.0686      5049.0905      6428.2291      621.66163      82.553236      1488.1656    
 217638000   241.35228     -420.74039     -339.90836     -420.70342      0              4506.1987      30.923         21.319344      32.575049      21475.364      4394.2149      4522.8799      4601.5012      595.11752     -306.13822      935.18387    
 217640000   246.81288     -419.73532     -337.07447     -419.70074      0              6685.945       30.923         21.319344      32.530022      21445.679      5649.2392      7206.8582      7201.7375     -75.251458      270.97266      643.25402    
 217642000   242.22206     -420.44889     -339.32557     -420.41091      0              5437.3795      30.923         21.319344      32.505541      21429.541      5363.3909      6868.68        4080.0677     -1009.4979     -292.75774     -3364.3853    
 217644000   247.89363     -420.72674     -337.70393     -420.68288      0              6731.9375      30.923         21.319344      32.598786      21491.013      4850.8101      7179.8486      8165.1537     -1065.9633      43.699257      349.2806     
 217646000   242.96106     -424.83275     -343.46193     -424.77132      0              5903.3653      30.923         21.319344      32.645811      21522.014      5379.3829      5396.2784      6934.4346      5.8391951     -299.34994      778.38777    
 217648000   243.52861     -420.91828     -339.35737     -420.88033      0              7601.7019      30.923         21.319344      32.507559      21430.871      7725.5182      6745.5934      8333.9942     -542.18193     -478.64302      1423.1258    
 217650000   251.99931     -419.76199     -335.36414     -419.7375       0              7055.1426      30.923         21.319344      32.601367      21492.714      4080.1664      10022.544      7062.7172     -402.63714      1518.6826     -972.97694    
 217652000   245.68299     -417.93067     -335.64824     -417.89574      0              6457.2818      30.923         21.319344      32.825662      21640.583      7268.6063      4393.5882      7709.6508      888.089       -1189.5196      1496.648     
 217654000   249.18435     -419.40747     -335.95238     -419.37525      0              4531.7859      30.923         21.319344      32.722495      21572.569      3731.5865      5101.5393      4762.2318      1941.2168      1279.7164      775.80808    
 217656000   240.26072     -420.36486     -339.89841     -420.35077      0              4457.2774      30.923         21.319344      32.527605      21444.086      3768.9091      3963.1983      5639.7248     -850.99941     -77.289132      89.302203    
 217658000   251.58236     -421.11937     -336.86116     -421.06414      0              5786.8602      30.923         21.319344      32.636873      21516.122      7053.8083      5200.6882      5106.084       403.33731      1354.9557      1033.3449    
 217660000   248.24157     -420.53092     -337.39159     -420.51361      0              6093.6815      30.923         21.319344      32.64408       21520.873      5666.2598      6410.2489      6204.5358      699.33105     -1215.0803      1501.6299    
 217662000   246.65464     -418.68334     -336.07549     -418.65813      0              6682.9128      30.923         21.319344      32.677025      21542.593      6480.2294      6516.8965      7051.6126     -280.04247      218.78221      2040.6139    
 217664000   249.45757     -422.01962     -338.47303     -421.98716      0              5666.7267      30.923         21.319344      32.689518      21550.829      5439.2527      5744.367       5816.5603     -997.46663      176.72116      658.94881    
 217666000   237.52636     -419.13211     -339.58144     -419.07915      0              5049.0034      30.923         21.319344      32.826606      21641.205      4790.636       6903.8101      3452.5641     -347.15202      951.8978       1176.0191    
 217668000   246.17894     -420.62648     -338.17794     -420.59021      0              5322.9641      30.923         21.319344      32.680566      21544.927      7379.6149      3320.0551      5269.2224     -553.37703     -413.10315      1946.6774    
 217670000   240.98886     -418.74816     -338.03785     -418.68755      0              7783.2992      30.923         21.319344      32.772351      21605.437      8159.7266      7692.291       7497.8801     -40.749147      73.94527       988.19013    
 217672000   241.95126     -421.79914     -340.76651     -421.79678      0              6267.29        30.923         21.319344      32.679237      21544.051      5000.4505      7881.2725      5920.1469      529.24185      784.83277      941.67568    
 217674000   245.00411     -419.3484      -337.29333     -419.32447      0              6754.1868      30.923         21.319344      32.593462      21487.503      7461.1052      5238.9473      7562.5079     -370.96581      503.80145     -1121.9931    
 217676000   247.78522     -419.20911     -336.22261     -419.17515      0              5798.507       30.923         21.319344      32.495666      21423.03       5769.6494      6070.9111      5554.9606     -750.63863     -942.95708      407.83993    
 217678000   248.85027     -420.27772     -336.93452     -420.23271      0              7841.0026      30.923         21.319344      32.391523      21354.373      8171.3859      7409.3708      7942.2512      964.70065     -80.877239     -1091.0398    
 217680000   247.7733      -422.51913     -339.53662     -422.51186      0              5934.232       30.923         21.319344      32.350061      21327.039      6476.8649      5646.331       5679.5002      437.6748       588.23016      417.87189    
[...]
 218126000   247.85056     -419.60444     -336.59606     -419.57723      0              3607.1733      30.923         21.319344      32.70388       21560.297      2560.1069      3091.1808      5170.2323     -2133.3779     -632.92096      2291.0405    
 218128000   251.47146     -421.31888     -337.09781     -421.30242      0              6905.4752      30.923         21.319344      32.607508      21496.763      6205.6535      7359.4525      7151.3195      839.07279     -303.84448      1069.7695    
 218130000   252.15888     -417.36747     -332.91618     -417.3446       0              4857.5923      30.923         21.319344      32.639434      21517.811      3588.0402      5790.1503      5194.5864      99.705326      1069.9654     -105.78944    
 218132000   246.67627     -419.21962     -336.60452     -419.1764       0              4727.7229      30.923         21.319344      32.676724      21542.394      4731.9056      5130.4204      4320.8426      21.209696      1310.6836     -858.03202    
 218134000   241.0386      -420.42406     -339.69709     -420.39996      0              5876.9056      30.923         21.319344      32.708795      21563.537      6131.5833      4791.5782      6707.5555     -1576.4515     -270.03501      624.35211    
 218136000   244.27952     -418.51204     -336.69965     -418.47307      0              6230.8941      30.923         21.319344      32.709222      21563.819      5907.8306      7220.3843      5564.4675      939.74657      22.129649     -380.71318    
 218138000   243.85927     -421.94552     -340.27387     -421.9525       0              6084.6383      30.923         21.319344      32.677323      21542.789      5132.1751      7520.0044      5601.7355     -817.64986     -227.42236     -1837.4214    
 218140000   241.17084     -421.73782     -340.96656     -421.74441      0              6924.1321      30.923         21.319344      32.632442      21513.201      7136.3262      7163.0835      6472.9865     -1164.7089     -2646.6887     -1094.289     
 218142000   254.89722     -422.34058     -336.97218     -422.32238      0              5804.6523      30.923         21.319344      32.627681      21510.062      7014.5394      2808.6468      7590.7708     -217.92953     -165.01361      1348.0896    
 218144000   243.43676     -419.56596     -338.03582     -419.5395       0              3674.8682      30.923         21.319344      32.568528      21471.065      3444.9372      4258.5673      3321.1003     -67.143912     -233.79478     -1141.9444    
 218146000   247.38783     -418.21237     -335.35896     -418.1638       0              5588.4353      30.923         21.319344      32.549638      21458.612      6431.3574      4899.1088      5434.8396     -1558           106.37564     -1087.2569    
 218148000   234.06979     -417.06419     -338.67116     -417.02365      0              4972.6548      30.923         21.319344      32.449302      21392.464      7447.3099      2714.4975      4756.157      -838.73657     -2160.657       251.4486     
 218150000   245.01289     -421.73628     -339.67827     -421.71674      0              5513.1658      30.923         21.319344      32.503304      21428.065      5739.3851      4632.4532      6167.6592     -824.95893     -171.93262     -1298.8531    
 218152000   251.54832     -418.15533     -333.90852     -418.11035      0              5059.7514      30.923         21.319344      32.389182      21352.83       5191.7926      5645.001       4342.4607     -1377.1072     -980.96008     -1467.8142    
 218154000   254.34363     -414.50102     -329.31802     -414.441        0              7332.7228      30.923         21.319344      32.489213      21418.776      6084.9723      7908.2372      8004.9589     -472.15904     -144.71042      707.16899    
 218156000   245.6943      -420.08608     -337.79985     -420.05357      0              5526.3741      30.923         21.319344      32.605577      21495.49       5120.2438      6209.0239      5249.8546      1059.6144     -256.5294      -699.4559     
 218158000   244.28027     -418.94169     -337.12904     -418.91434      0              6944.2869      30.923         21.319344      32.512537      21434.153      7186.9288      5999.3856      7646.5463     -54.279449     -451.31339     -8.9837437    
 218160000   240.87329     -418.90242     -338.23081     -418.85144      0              5189.139       30.923         21.319344      32.658453      21530.349      4566.6424      5450.4352      5550.3395     -638.93451     -362.34394      375.73088    
 218162000   246.3367      -417.70685     -335.20548     -417.69201      0              7832.6713      30.923         21.319344      32.57075       21472.53       7734.6276      7109.8934      8653.4929     -1391.2575      470.67438     -1665.8017    
 218164000   243.03967     -421.52311     -340.12595     -421.51472      0              7465.5262      30.923         21.319344      32.471052      21406.803      4864.4555      7467.1971      10064.926      1896.3922     -385.1998      -547.9161     
 218166000   241.66873     -421.63804     -340.70003     -421.65286      0              6428.7756      30.923         21.319344      32.314646      21303.691      8114.6418      5445.5749      5726.1102      764.95892     -1665.986      -459.46642    
 218168000   243.60448     -420.67683     -339.09052     -420.67282      0              6404.9482      30.923         21.319344      32.488669      21418.418      6557.3819      4745.9598      7911.5029      95.129376     -350.4248      -407.37397    
 218170000   247.24891     -421.6759      -338.86901     -421.69666      0              4718.9047      30.923         21.319344      32.320458      21307.523      2933.1292      6227.2073      4996.3776      1504.2829     -1210.7293     -827.49571    
 218172000   244.61258     -420.41696     -338.49302     -420.3962       0              5726.746       30.923         21.319344      32.564922      21468.688      4237.8552      6500.6074      6441.7753      800.27386     -535.94328      276.20697    
 218174000   246.60988     -418.98969     -336.39683     -418.96945      0              5382.3631      30.923         21.319344      32.690014      21551.156      3280.4945      3931.9058      8934.689      -28.308152      466.76413      1508.6128    
 218176000   240.51542     -420.2308      -339.67905     -420.23117      0              5719.3853      30.923         21.319344      32.648967      21524.095      4661.3096      6668.2056      5828.6409      692.87232     -209.18798      133.99527    
 218178000   249.42616     -419.79412     -336.25805     -419.78817      0              6490.1363      30.923         21.319344      32.67627       21542.095      6663.632       5662.9925      7143.7845      345.93466     -888.42817      1485.2278    
 218180000   238.64698     -420.49567     -340.56968     -420.50229      0              6785.4427      30.923         21.319344      32.613978      21501.028      6267.592       6984.0532      7104.6829      810.7949      -420.37155     -812.03064    
 218182000   238.56544     -419.5099      -339.61122     -419.51937      0              6009.7855      30.923         21.319344      32.581233      21479.441      6986.6255      4844.5372      6198.1936      768.77715      1399.9781     -190.22369    
 218184000   247.42222     -418.61016     -335.74524     -418.61652      0              6070.0441      30.923         21.319344      32.475491      21409.73       5084.7813      7672.5035      5452.8474     -35.880457      2179.0726      234.0873     
 218186000   242.82094     -418.1883      -336.8644      -418.18171      0              7051.189       30.923         21.319344      32.5045        21428.854      6085.2965      6672.3913      8395.8792      172.15197     -1270.6722      1113.4482    
 218188000   247.22117     -418.82989     -336.03229     -418.82759      0              5200.9785      30.923         21.319344      32.621498      21505.986      6803.9122      5049.3268      3749.6965      266.0538      -963.99483     -423.64437    
 218190000   245.25162     -422.3982      -340.26024     -422.4007       0              6417.0104      30.923         21.319344      32.520456      21439.373      6145.9731      7417.4733      5687.5849     -193.57043     -356.54747     -100.62378    
 218192000   241.74163     -422.23392     -341.2715      -422.2185       0              5453.0811      30.923         21.319344      32.534489      21448.625      5601.7881      5490.5959      5266.8592      483.55287     -239.85995     -287.15885    
 218194000   242.33436     -420.57887     -339.41794     -420.56444      0              6618.5091      30.923         21.319344      32.587503      21483.575      3812.817       7191.3068      8851.4035      585.41597      1049.1354     -166.83069    
 218196000   247.36934     -421.90026     -339.05304     -421.85411      0              5223.1734      30.923         21.319344      32.762967      21599.25       4799.1114      5899.7252      4970.6837     -1339.7132      217.08625     -969.39166    
 218198000   239.49957     -421.15032     -340.93879     -421.14644      0              5568.5053      30.923         21.319344      32.700331      21557.957      5577.7399      6539.8762      4587.9         1075.6837     -1493.1367     -2217.4616    
 218200000   245.33873     -423.2162      -341.04906     -423.23556      0              6230.3312      30.923         21.319344      32.637302      21516.405      6400.408       6315.8623      5974.7234     -1228.6506     -600.18562     -740.72729    
 218202000   247.41018     -420.96878     -338.10788     -420.96479      0              5133.9629      30.923         21.319344      32.732416      21579.109      4973.6999      6898.3414      3529.8475      1144.1787     -1374.027      -179.46404    
 218204000   247.50501     -424.30972     -341.41707     -424.32402      0              8696.6733      30.923         21.319344      32.498539      21424.924      8427.5449      9817.9142      7844.5609     -919.23052     -682.98491      265.68178    
 218206000   247.99655     -422.56055     -339.50328     -422.57666      0              6481.6959      30.923         21.319344      32.563399      21467.684      6569.9957      5557.1342      7317.958      -321.20644     -752.88719      584.46938    
 218208000   248.94788     -419.10841     -335.73252     -419.09275      0              5716.3661      30.923         21.319344      32.549676      21458.636      5401.3505      4696.4025      7051.3452     -466.79177     -567.1414      -448.11041    
 218210000   235.00007     -418.30798     -339.60339     -418.28923      0              7927.8787      30.923         21.319344      32.644586      21521.207      7544.5528      8091.4883      8147.595       848.49837     -931.71117      62.970278    
 218212000   244.85288     -419.93524     -337.93082     -419.92554      0              8227.4388      30.923         21.319344      32.543058      21454.274      7303.3598      7566.0318      9812.9247      504.10802      179.83514      533.53895    
 218214000   242.95995     -419.19995     -337.8295      -419.20257      0              7394.6347      30.923         21.319344      32.471036      21406.793      8942.2985      7130.9137      6110.692       888.3555      -41.648776      624.04539    
 218216000   247.45031     -419.91162     -337.03728     -419.92032      0              5961.3867      30.923         21.319344      32.529286      21445.195      5623.9538      7059.9966      5200.2098      180.85043     -315.62299      87.694988    
 218218000   245.74357     -422.20344     -339.90072     -422.21126      0              6423.3983      30.923         21.319344      32.607551      21496.792      6681.1629      7592.6399      4996.3922     -1524.137       731.03351      682.74552    
 218220000   254.61674     -421.64434     -336.36988     -421.63411      0              4924.6409      30.923         21.319344      32.567124      21470.139      5286.7173      5705.4225      3781.7828      853.25726     -668.64876     -593.96296    
 218222000   253.62763     -420.19428     -335.25108     -420.2243       0              8151.351       30.923         21.319344      32.552922      21460.776      7549.067       7963.3496      8941.6364      1027.3687     -1249.9389      382.84451    
 218224000   243.99703     -421.49164     -339.77386     -421.52083      0              6633.4294      30.923         21.319344      32.553308      21461.031      5980.831       7511.0021      6408.4552     -788.04844      1275.7225     -1366.2712    
 218226000   241.02833     -422.87199     -342.14846     -422.89062      0              7642.5094      30.923         21.319344      32.46528       21402.998      7738.6519      7309.9421      7878.9342     -1968.5122      1234.637      -1199.5296    
 218228000   237.79937     -418.89105     -339.24894     -418.89239      0              4579.8938      30.923         21.319344      32.618075      21503.73       3646.9369      4875.9479      5216.7965     -595.89805     -541.62605     -667.65228    
 218230000   245.13046     -421.22839     -339.131       -421.24702      0              6039.7112      30.923         21.319344      32.489726      21419.114      4447.666       6214.8378      7456.6297     -793.5998       1564.6768     -39.813577    
 218232000   245.47832     -424.15121     -341.93732     -424.2021       0              6862.091       30.923         21.319344      32.43759       21384.743      6992.185       6509.2371      7084.8509      405.71804     -50.12249       473.04814    
 218234000   243.83336     -419.44837     -337.7854      -419.4572       0              7843.3237      30.923         21.319344      32.453883      21395.485      7533.0974      7718.2954      8278.5785     -21.422187     -608.82005     -804.33914    
 218236000   246.86148     -419.64499     -336.96786     -419.63416      0              6492.1412      30.923         21.319344      32.436589      21384.083      4758.4328      6210.084       8507.9069     -597.25903     -1183.5051      114.05814    
 218238000   245.71979     -421.1239      -338.82914     -421.11219      0              6837.127       30.923         21.319344      32.344276      21323.225      5900.8358      5832.8503      8777.6947      198.92369      347.77984      970.60009    
 218240000   247.67759     -422.35766     -339.40721     -422.35234      0              4404.7125      30.923         21.319344      32.423476      21375.438      4963.911       5057.834       3192.3923      1220.3336      1370.993       546.49253    
 218242000   245.78509     -420.47094     -338.15431     -420.45297      0              6629.3229      30.923         21.319344      32.524965      21442.346      7886.3206      6811.5825      5190.0656     -1079.9893     -2236.4994     -1092.3956    
 218244000   249.89428     -421.12017     -337.42732     -421.13749      0              6340.9172      30.923         21.319344      32.501231      21426.699      7397.1746      6579.0995      5046.4774     -321.92166     -647.67295     -922.19333    
 218246000   242.53041     -421.517       -340.29041     -421.52771      0              5816.1057      30.923         21.319344      32.429715      21379.551      7028.846       5712.6362      4706.835      -783.25422     -1701.9363     -340.5324     
 218248000   239.20205     -421.41426     -341.30237     -421.40024      0              6248.426       30.923         21.319344      32.337828      21318.974      6409.536       7941.3934      4394.3485     -504.82543      1630.4431      172.1697     
 218250000   246.38708     -422.16862     -339.65037     -422.18565      0              8569.1916      30.923         21.319344      32.257819      21266.228      9076.3947      8146.0557      8485.1242      142.96939      146.28373     -401.03653    
 218252000   241.30258     -421.69734     -340.88197     -421.71235      0              6453.4574      30.923         21.319344      32.275601      21277.95       5437.9955      7491.0053      6431.3713      1099.484       626.16928      673.5161     
 218254000   243.19976     -418.95324     -337.50247     -418.95994      0              4714.185       30.923         21.319344      32.523704      21441.514      4784.2215      4184.3658      5173.9678     -989.66041     -175.02935      182.56093    
 218256000   244.1548      -420.10881     -338.33818     -420.10123      0              5987.678       30.923         21.319344      32.450929      21393.537      7510.4363      5461.4232      4991.1744      655.17971     -701.30231     -2469.64      
 218258000   241.466       -418.87683     -338.00672     -418.84906      0              5192.0543      30.923         21.319344      32.501742      21427.036      5963.7492      4377.6984      5234.7155      205.44238     -1720.7578      1313.6712    
 218260000   246.07535     -420.70939     -338.29555     -420.69891      0              5619.7018      30.923         21.319344      32.54729       21457.064      6368.2556      6134.3599      4356.4898     -625.63262     -3535.4314     -1375.5264    
 218262000   244.22661     -420.08749     -338.29282     -420.12773      0              5715.3596      30.923         21.319344      32.579569      21478.344      6122.3674      6034.1235      4989.5879      72.81932      -178.45378     -946.49838    
 218264000   243.50081     -423.19873     -341.64714     -423.21637      0              7408.0259      30.923         21.319344      32.394473      21356.318      6791.7052      9707.3169      5725.0557      895.18529     -828.9205       800.16778    
 218266000   244.93322     -421.01109     -338.97977     -421.02932      0              5678.0246      30.923         21.319344      32.348709      21326.148      4393.1841      6187.5916      6453.2983      2009.5851      1276.8722     -572.98032    
 218268000   242.97767     -419.78782     -338.41143     -419.83801      0              6446.6617      30.923         21.319344      32.39399       21356          5053.8587      6722.0268      7564.0995      869.49721      1229.4119      684.27477    
 218270000   241.83993     -420.39541     -339.40006     -420.409        0              6036.3646      30.923         21.319344      32.486901      21417.252      5596.912       6783.5724      5728.6094      842.61194     -1008.7617     -800.07768    
 218272000   243.47524     -420.29415     -338.75112     -420.31066      0              6257.2076      30.923         21.319344      32.458352      21398.431      5646.6749      6751.3738      6373.5742     -241.63478      1013.9667     -935.35233    
 218274000   242.8661      -420.03801     -338.69899     -420.06654      0              5541.5663      30.923         21.319344      32.374736      21343.306      5430.6852      4526.7361      6667.2775     -1436.7731     -1859.8504      1083.8298    
 218276000   244.49613     -420.76137     -338.87643     -420.75923      0              5962.6281      30.923         21.319344      32.59096       21485.853      5682.3355      6019.5972      6185.9516      542.0107      -394.41538      2067.9016    
 218278000   243.66871     -421.87643     -340.2686      -421.9865       0              6937.5972      30.923         21.319344      32.590148      21485.318      6635.0641      7156.4694      7021.2581     -830.9149       936.12799     -1134.9718    
 218280000   244.95762     -421.69673     -339.65723     -421.71496      0              7348.3366      30.923         21.319344      32.667582      21536.368      6168.239       8519.1788      7357.592      -1639.0404     -60.983922     -1017.2816    
 218282000   247.94856     -419.84418     -336.80297     -419.85222      0              5819.5796      30.923         21.319344      32.617992      21503.674      4106.7551      67