LAMMPS (23 Jun 2022)
include procedure.lmp
echo both
include		in.partitions
variable        pid world 0
include		in.temp
variable	temperature equal 245
variable        tempDamp equal 0.100 # this is 0.1 ps
include		in.pressure
variable        pressure equal 6079.5
variable        pressureDamp equal 1.0 #this is 1ps

variable	barostat string	   tri
variable	direction string   z
variable	direction_x_bool equal 0
variable	direction_y_bool equal 0
variable	direction_z_bool equal 1

include		in.seed
variable        seed world 745823

units           metal
atom_style	full
box tilt large
read_restart 	restart.lmp.${pid}
read_restart 	restart.lmp.0
Reading restart file ...
  restart file = 23 Jun 2022, LAMMPS = 23 Jun 2022
  restoring atom style full from restart
  triclinic box = (0 0 -0.86872965) to (30.923 21.319344 31.591325) with tilt (-9.137482 1.1334734 -10.667868)
WARNING: Triclinic box skew is large (../domain.cpp:224)
  2 by 1 by 2 MPI processor grid
Summary of lammps deepmd module ...
  >>> Info of deepmd-kit:
  installed to:       /u/sigbjobo/software/DEEPMD_FROM_SOURCE/deepmd-kit/install
  source:             v2.1.3
  source branch:       master
  source commit:      5a32c49
  source commit at:   2022-07-01 09:52:58 +0800
  surpport model ver.:1.1 
  build float prec:   double
  build with tf inc:  /u/sigbjobo/software/DEEPMD_FROM_SOURCE/tensorflow/install/include;/u/sigbjobo/software/DEEPMD_FROM_SOURCE/tensorflow/install/include
  build with tf lib:  /u/sigbjobo/software/DEEPMD_FROM_SOURCE/tensorflow/install/lib/libtensorflow_cc.so;/u/sigbjobo/software/DEEPMD_FROM_SOURCE/tensorflow/install/lib/libtensorflow_framework.so
  set tf intra_op_parallelism_threads: 0
  set tf inter_op_parallelism_threads: 0
  >>> Info of lammps module:
  use deepmd-kit at:  /u/sigbjobo/software/DEEPMD_FROM_SOURCE/deepmd-kit/install
  source:             v2.1.3
  source branch:      master
  source commit:      5a32c49
  source commit at:   2022-07-01 09:52:58 +0800
  build float prec:   double
  build with tf inc:  /u/sigbjobo/software/DEEPMD_FROM_SOURCE/tensorflow/install/include;/u/sigbjobo/software/DEEPMD_FROM_SOURCE/tensorflow/install/include
  build with tf lib:  /u/sigbjobo/software/DEEPMD_FROM_SOURCE/tensorflow/install/lib/libtensorflow_cc.so;/u/sigbjobo/software/DEEPMD_FROM_SOURCE/tensorflow/install/lib/libtensorflow_framework.so
  restoring pair style deepmd from restart
  2592 atoms
Finding 1-2 1-3 1-4 neighbors ...
  special bond factors lj:    0        0        0       
  special bond factors coul:  0        0        0       
     0 = max # of 1-2 neighbors
     0 = max # of 1-3 neighbors
     0 = max # of 1-4 neighbors
     1 = max # of special neighbors
  special bonds CPU = 0.000 seconds
  read_restart CPU = 0.040 seconds
include 	in.setup
variable	out_freq equal 2000
variable	out_freq2 equal 2000

timestep        0.0005

neigh_modify    delay 7 every 1

include         in.deepmd
# This is deepMD model

# create groups ###
#group ox type 2
#group hy type 1

mass 2 15.999
mass 1 1.008

pair_style      deepmd ../graph.pb
pair_coeff      * *

bond_style      none
angle_style     none
dihedral_style  none
improper_style  none
neigh_modify exclude none


neighbor        2.0 bin
neigh_modify    every 50 delay 0 check no

thermo          ${out_freq}
thermo          2000
thermo_style 	custom step temp pe etotal epair emol press lx ly lz vol pxx pyy pzz pxy pxz pyz

restart 	${out_freq} restart.lmp.${pid} restart2.lmp.${pid}
restart 	2000 restart.lmp.${pid} restart2.lmp.${pid}
restart 	2000 restart.lmp.0 restart2.lmp.${pid}
restart 	2000 restart.lmp.0 restart2.lmp.0


timer           timeout 23:50:00 every 1000
New timer settings: style=normal  mode=nosync  timeout=23:50:00


# Set number of time steps
variable 	nsteps_wall		equal	 6000000
variable 	nsteps_enhanced_coex    equal	60000000

variable     nsteps_enhanced_coex_upto equal (${nsteps_wall}+${nsteps_enhanced_coex})
variable     nsteps_enhanced_coex_upto equal (6000000+${nsteps_enhanced_coex})
variable     nsteps_enhanced_coex_upto equal (6000000+60000000)


# Set temperature for first step
if "$(step) < 1  " then    "velocity 	all create ${temperature} ${seed} dist gaussian"


# Always run thermo and barostat


######################################
# Run simulation with wall potential #
######################################
if " $(step) < ${nsteps_wall} " then    "fix             3 all plumed plumedfile plumed.equil.dat outfile plumed.equil.out"   "fix             1 all nph ${direction} ${pressure} ${pressure} ${pressureDamp}"   "fix             2 all temp/csvr ${temperature} ${temperature} ${tempDamp} ${seed}"   "run             ${nsteps_wall} upto"
if " $(step) == ${nsteps_wall} " then    "unfix 3"   "unfix 1"   "unfix 2"


############################
# Run enhanced coesistence #
############################
if "$(step) == ${nsteps_wall}" then    "fix             3 all plumed plumedfile plumed.start.dat outfile plumed.out" else    "fix             3 all plumed plumedfile plumed.dat outfile plumed.out"
fix             3 all plumed plumedfile plumed.dat outfile plumed.out

if "$(step) < ${nsteps_enhanced_coex_upto} && $(step) >= ${nsteps_wall} " then    "include         in.dump"    "fix             1 all nph ${direction} ${pressure} ${pressure} ${pressureDamp}"   "fix             2 all temp/csvr ${temperature} ${temperature} ${tempDamp} ${seed}"   "run             ${nsteps_enhanced_coex_upto} upto"    "unfix 3"   "unfix 1"   "unfix 2"
include         in.dump
dump            myDump all atom ${out_freq2} dump.water.${pid}
dump            myDump all atom 2000 dump.water.${pid}
dump            myDump all atom 2000 dump.water.0
dump            myDump2 all dcd ${out_freq2} dump.${pid}.dcd
dump            myDump2 all dcd 2000 dump.${pid}.dcd
dump            myDump2 all dcd 2000 dump.0.dcd
dump_modify     myDump append yes
dump_modify     myDump2 append yes

fix             1 all nph ${direction} ${pressure} ${pressure} ${pressureDamp}
fix             1 all nph z ${pressure} ${pressure} ${pressureDamp}
fix             1 all nph z 6079.5 ${pressure} ${pressureDamp}
fix             1 all nph z 6079.5 6079.5 ${pressureDamp}
fix             1 all nph z 6079.5 6079.5 1
Resetting global fix info from restart file:
  fix style: nph, fix ID: 1
fix             2 all temp/csvr ${temperature} ${temperature} ${tempDamp} ${seed}
fix             2 all temp/csvr 245 ${temperature} ${tempDamp} ${seed}
fix             2 all temp/csvr 245 245 ${tempDamp} ${seed}
fix             2 all temp/csvr 245 245 0.1 ${seed}
fix             2 all temp/csvr 245 245 0.1 745823
Resetting global fix info from restart file:
  fix style: temp/csvr, fix ID: 2
run             ${nsteps_enhanced_coex_upto} upto
run             66000000 upto

CITE-CITE-CITE-CITE-CITE-CITE-CITE-CITE-CITE-CITE-CITE-CITE-CITE

Your simulation uses code contributions which should be cited:

- USER-DEEPMD package:

@article{Wang_ComputPhysCommun_2018_v228_p178,
  author = {Wang, Han and Zhang, Linfeng and Han, Jiequn and E, Weinan},
  doi = {10.1016/j.cpc.2018.03.016},
  url = {https://doi.org/10.1016/j.cpc.2018.03.016},
  year = 2018,
  month = {jul},
  publisher = {Elsevier {BV}},
  volume = 228,
  journal = {Comput. Phys. Commun.},
  title = {{DeePMD-kit: A deep learning package for many-body potential energy representation and molecular dynamics}},
  pages = {178--184}
}

CITE-CITE-CITE-CITE-CITE-CITE-CITE-CITE-CITE-CITE-CITE-CITE-CITE

Generated 0 of 1 mixed pair_coeff terms from geometric mixing rule
All restart file global fix info was re-assigned
Neighbor list info ...
  update every 50 steps, delay 0 steps, check no
  max neighbors/atom: 2000, page size: 100000
  master list distance cutoff = 8
  ghost atom cutoff = 8
  binsize = 4, bins = 11 8 9
  1 neighbor lists, perpetual/occasional/extra = 1 0 0
  (1) pair deepmd, perpetual
      attributes: full, newton on
      pair build: full/bin
      stencil: full/bin/3d
      bin: standard
Per MPI rank memory allocation (min/avg/max) = 7.313 | 7.313 | 7.314 Mbytes
   Step          Temp          PotEng         TotEng         E_pair         E_mol          Press            Lx             Ly             Lz           Volume          Pxx            Pyy            Pzz            Pxy            Pxz            Pyz      
  32014000   245.04995     -419.8094      -337.73898     -419.8094       0              5851.4257      30.923         21.319344      32.460054      21399.553      5941.5599      5592.4645      6020.2528      650.18648     -949.77806     -434.45193    
  32016000   249.32966     -419.40941     -335.90566     -419.38275      0              6532.515       30.923         21.319344      32.589508      21484.896      8783.8734      5107.486       5706.1857     -218.01819      149.0189       1334.6993    
  32018000   238.72619     -418.33028     -338.37776     -418.31902      0              5670.9401      30.923         21.319344      32.504555      21428.89       5505.2746      7232.4615      4275.0842      78.058627     -434.46285     -1189.4685    
  32020000   244.7737      -417.53572     -335.55782     -417.51252      0              5798.5369      30.923         21.319344      32.592922      21487.147      4232.0348      6630.8915      6532.6845      552.01663      1464.0832     -1572.2669    
  32022000   242.36118     -417.98985     -336.81993     -417.97513      0              5233.9364      30.923         21.319344      32.696356      21555.337      5263.1368      5935.7837      4502.8888     -1167.2156      164.38919      1281.9091    
  32024000   238.43686     -418.6371      -338.78149     -418.63499      0              4987.0066      30.923         21.319344      32.517346      21437.323      5463.4994      5339.2879      4158.2324      954.19862      206.65776      653.05267    
  32026000   246.41351     -416.50001     -333.97292     -416.49635      0              5442.6359      30.923         21.319344      32.527338      21443.91       5320.5469      5738.4222      5268.9386     -923.50352      476.58138     -171.23462    
  32028000   241.87578     -417.04119     -336.03384     -417.01587      0              7459.7105      30.923         21.319344      32.431542      21380.756      6663.0799      7173.8285      8542.223       218.52236     -886.45671      1690.831     
  32030000   247.50946     -418.64585     -335.75171     -418.6375       0              6765.0451      30.923         21.319344      32.503793      21428.388      7146.4642      6686.1557      6462.5154     -2116.3997     -324.04365      209.62611    
  32032000   242.6549      -418.68997     -337.42168     -418.69158      0              5110.8948      30.923         21.319344      32.571059      21472.734      5333.9585      6425.1354      3573.5906     -1057.7478      943.54494     -200.95119    
  32034000   244.81615     -417.26955     -335.27743     -417.26638      0              6949.2499      30.923         21.319344      32.541687      21453.37       7545.6686      7801.2969      5500.7843      1590.888      -82.316555     -849.00616    
  32036000   244.09562     -417.59435     -335.84355     -417.58278      0              5776.2915      30.923         21.319344      32.772104      21605.274      7106.9481      6465.1708      3756.7557      1629.3029      215.05605      630.92642    
  32038000   246.39687     -415.42195     -332.90043     -415.41618      0              7428.2541      30.923         21.319344      32.613213      21500.524      7370.2846      8620.529       6293.9487      660.14363      1165.8079     -1241.5465    
  32040000   246.91883     -417.29416     -334.59783     -417.29469      0              7420.8608      30.923         21.319344      32.460705      21399.982      6508.575       7353.8977      8400.1099      465.32074      525.82239      451.31806    
  32042000   250.69953     -416.35961     -332.39707     -416.35515      0              6279.483       30.923         21.319344      32.526995      21443.684      6329.369       6232.4859      6276.594       680.73504     -1.8477253      882.52313    
  32044000   245.85875     -418.0854      -335.7441      -418.06418      0              6592.5043      30.923         21.319344      32.561914      21466.705      6031.8221      6058.147       7687.544      -66.943253      1219.1476     -227.16984    
  32046000   236.79626     -419.2456      -339.93945     -419.22259      0              7279.6192      30.923         21.319344      32.729603      21577.255      7969.2913      5806.8148      8062.7515      496.48243     -49.990359      201.64911    
  32048000   247.23456     -415.83566     -333.03358     -415.82746      0              7317.8657      30.923         21.319344      32.710402      21564.596      7270.9593      6565.5157      8117.1222     -1499.2692      397.57271      1509.4822    
  32050000   252.29188     -418.33622     -333.84038     -418.32417      0              5624.4745      30.923         21.319344      32.657877      21529.969      8412.6833      4129.4464      4331.2937      281.97681     -1637.5073      531.38781    
  32052000   245.95088     -418.12226     -335.7501      -418.12184      0              5688.8729      30.923         21.319344      32.471806      21407.3        5135.2467      5791.8816      6139.4904     -531.70843      922.66493      842.67219    
  32054000   249.87071     -418.09537     -334.41042     -418.07768      0              4944.2829      30.923         21.319344      32.532899      21447.576      4709.3358      5910.8211      4212.6919     -430.67458     -12.502949      1095.0767    
  32056000   246.70941     -416.7416      -334.11541     -416.73969      0              6893.2466      30.923         21.319344      32.346054      21324.397      6183.1772      8502.6428      5993.9197     -1107.7475      199.49475      463.45624    
  32058000   246.98861     -418.11856     -335.39885     -418.12129      0              7293.5323      30.923         21.319344      32.479128      21412.127      6087.1983      6878.1973      8915.2012     -659.28243      1318.7059      916.96295    
  32060000   249.39772     -420.01212     -336.48557     -420.00633      0              4574.6656      30.923         21.319344      32.648544      21523.816      5200.9537      5496.863       3026.18        1316.9117     -1229.8518     -556.16101    
  32062000   244.05306     -417.19609     -335.45953     -417.20351      0              6540.4514      30.923         21.319344      32.431033      21380.42       6681.5446      5981.553       6958.2566     -1210.1814     -179.2659       1103.2595    
  32064000   248.96494     -418.96279     -335.58119     -418.97451      0              4756.922       30.923         21.319344      32.562858      21467.327      4376.9883      3779.7511      6114.0266      2412.1938     -446.16841      1067.938     
  32066000   242.01552     -419.80444     -338.75029     -419.80388      0              6152.6213      30.923         21.319344      32.55137       21459.753      8633.0259      3526.1821      6298.656      -1084.975      -1335.6705      105.2589     
  32068000   240.61872     -416.29545     -335.7091      -416.29289      0              4665.6041      30.923         21.319344      32.554395      21461.748      6221.0838      3074.4244      4701.3042     -322.2594      -966.73014     -195.29212    
  32070000   245.94273     -420.19141     -337.82199     -420.20235      0              6016.8569      30.923         21.319344      32.507589      21430.89       5254.718       3634.757       9161.0957     -1092.6455      1497.4256      2966.9341    
  32072000   242.69773     -420.54003     -339.2574      -420.54295      0              5259.355       30.923         21.319344      32.577547      21477.011      3889.0387      6502.649       5386.3773      1166.6412      747.07662     -463.2757     
  32074000   244.51918     -420.33224     -338.43958     -420.33067      0              5930.8         30.923         21.319344      32.623316      21507.184      4130.2036      6917.3538      6744.8426      777.75966     -770.99426      1102.5254    
  32076000   245.0864      -419.63699     -337.55436     -419.63853      0              5743.1686      30.923         21.319344      32.518138      21437.845      6381.6393      6133.105       4714.7614      908.78755     -2069.4473     -1882.5162    
  32078000   241.82978     -418.8386      -337.84666     -418.83202      0              5190.7439      30.923         21.319344      32.612546      21500.084      4491.417       7605.4707      3475.3439      502.51909     -1422.3835     -1743.9266    
  32080000   252.37299     -416.73015     -332.20714     -416.72678      0              6417.2261      30.923         21.319344      32.562284      21466.949      7591.4567      5863.3819      5796.8399     -710.51491      1762.7642      696.56881    
  32082000   249.48092     -418.13778     -334.58336     -418.14123      0              6161.9866      30.923         21.319344      32.522679      21440.839      6621.4448      5275.4901      6589.0249     -1543.3988      1776.8907      498.55137    
  32084000   233.02913     -418.58793     -340.54344     -418.58593      0              5359.3238      30.923         21.319344      32.461074      21400.225      4358.2784      7080.0921      4639.601      -640.73656      404.52498     -670.74372    
  32086000   245.61695     -417.3877      -335.12738     -417.37227      0              6779.5271      30.923         21.319344      32.555678      21462.594      6428.206       7200.9748      6709.4005     -193.16266      2134.9468      54.621283    
  32088000   241.9698      -417.83728     -336.79843     -417.81307      0              4986.9458      30.923         21.319344      32.586896      21483.174      3444.7594      6106.3035      5409.7746      1439.1528      1384.7954     -558.43377    
  32090000   252.40313     -419.71817     -335.18507     -419.71831      0              4625.1181      30.923         21.319344      32.568381      21470.968      4121.5822      5746.1296      4007.6425      350.30804     -202.26491      1688.9758    
  32092000   246.36207     -419.56355     -337.05367     -419.55868      0              7079.0789      30.923         21.319344      32.563313      21467.627      7065.2927      8670.3158      5501.628       141.19739      1278.3819      43.427655    
  32094000   244.73202     -417.82064     -335.8567      -417.8094       0              4951.7273      30.923         21.319344      32.628091      21510.333      4888.9609      6239.1055      3727.1155     -1313.7491     -398.21102     -86.287384    
  32096000   243.01606     -419.93413     -338.54488     -419.92792      0              7287.276       30.923         21.319344      32.539814      21452.135      7717.0978      6367.648       7777.0821      1577.7523      572.24016      98.750997    
  32098000   245.85579     -415.93885     -333.59854     -415.91738      0              5658.072       30.923         21.319344      32.699832      21557.628      4564.6571      7421.2022      4988.3566      1441.0985     -635.09201     -219.87269    
  32100000   245.3882      -419.46791     -337.2842      -419.46408      0              7037.9219      30.923         21.319344      32.706212      21561.834      7214.5276      6952.0378      6947.2004      988.53267      2044.7521     -1085.6954    
  32102000   247.16313     -421.88948     -339.11132     -421.88316      0              4571.2756      30.923         21.319344      32.563993      21468.075      4760.4371      4129.635       4823.7547     -322.98666     -1263.5992      229.64279    
  32104000   248.59229     -420.17001     -336.91321     -420.17288      0              8068.5577      30.923         21.319344      32.550644      21459.275      7787.8018      9725.43        6692.4412     -1918.5173      1933.0828     -478.80424    
  32106000   246.72514     -419.75336     -337.12189     -419.74706      0              5158.7813      30.923         21.319344      32.597318      21490.045      6933.6578      5465.7699      3076.9161      1138.0224     -168.53259     -210.33973    
  32108000   247.07148     -418.30644     -335.55898     -418.29513      0              6029.5201      30.923         21.319344      32.650806      21525.307      4545.8635      7319.019       6223.6777     -690.05649     -292.48927     -1009.7721    
  32110000   245.96343     -417.24707     -334.87071     -417.23967      0              5155.8919      30.923         21.319344      32.734679      21580.602      4165.9828      5611.3894      5690.3033      1089.7003     -379.26511      807.31488    
  32112000   247.38845     -418.79869     -335.94508     -418.79634      0              6185.3788      30.923         21.319344      32.668738      21537.129      4976.813       6206.6552      7372.6682      579.15011      302.69332     -2061.5424    
  32114000   248.00547     -417.88893     -334.82867     -417.88848      0              6031.2657      30.923         21.319344      32.565956      21469.369      5388.0102      6909.8114      5795.9755     -1165.9143      326.00913     -692.20669    
  32116000   239.20792     -421.17008     -341.05623     -421.16767      0              6336.2927      30.923         21.319344      32.474712      21409.216      6932.4916      7415.4001      4660.9866      213.2214      -829.26252     -813.16847    
  32118000   247.32043     -417.22098     -334.39014     -417.21939      0              5102.9427      30.923         21.319344      32.448604      21392.004      5903.9192      5558.184       3846.7248     -334.48563      230.17016     -1974.8078    
  32120000   245.79428     -421.53173     -339.21202     -421.53311      0              6945.6877      30.923         21.319344      32.366393      21337.806      8304.8708      6360.6438      6171.5484      1193.8397     -1714.5722     -23.414063    
  32122000   248.69339     -419.99039     -336.69973     -420.00474      0              6560.8006      30.923         21.319344      32.525682      21442.818      7576.9705      5953.3004      6152.131       130.14551      128.48657      300.24344    
  32124000   240.04464     -418.56982     -338.17574     -418.56948      0              7517.3334      30.923         21.319344      32.525497      21442.696      10748.775      5415.5926      6387.6324     -361.78035     -1500.858      -201.24649    
  32126000   249.38499     -419.23028     -335.70799     -419.22229      0              6260.3668      30.923         21.319344      32.593789      21487.719      8022.9158      6226.3038      4531.8807     -694.15937     -1549.4985      926.06664    
  32128000   249.65575     -416.72983     -333.11686     -416.70548      0              4895.0785      30.923         21.319344      32.584312      21481.471      6978.6781      4715.8388      2990.7187      214.19217     -396.95055      708.96191    
  32130000   233.84382     -420.07744     -341.7601      -420.07669      0              5714.238       30.923         21.319344      32.567835      21470.608      5890.9877      6306.292       4945.4342      711.55384      289.38359     -433.63725    
  32132000   246.75016     -417.34881     -334.70897     -417.31644      0              3179.819       30.923         21.319344      32.744919      21587.352      3037.2832      3775.0076      2727.1662      263.86261     -1740.8026     -494.30958    
  32134000   245.61793     -418.48789     -336.22725     -418.47341      0              6922.7752      30.923         21.319344      32.611151      21499.165      8225.6846      7000.5023      5542.1386      221.87188      209.84749     -0.44384119   
  32136000   245.23948     -415.94216     -333.80826     -415.9184       0              6682.3657      30.923         21.319344      32.588563      21484.273      8591.3183      5536.6622      5919.1165     -863.21494     -1304.0414     -1513.0162    
  32138000   241.93247     -419.68124     -338.6549      -419.68001      0              8430.6583      30.923         21.319344      32.470903      21406.705      6698.7018      9467.4722      9125.8009     -1062.192       1145.2444     -1200.0999    
  32140000   248.38019     -418.57128     -335.38552     -418.55045      0              6875.8415      30.923         21.319344      32.329871      21313.729      6934.3071      8589.5329      5103.6843      2031.6329      676.30172     -636.31398    
  32142000   240.15711     -421.45726     -341.02551     -421.45881      0              6650.84        30.923         21.319344      32.399135      21359.392      7644.7942      7185.6075      5122.1183      902.11263     -206.7265      -504.51962    
  32144000   243.8264      -420.01747     -338.35683     -420.01616      0              7093.3183      30.923         21.319344      32.583934      21481.222      5904.2353      7993.5248      7382.1946     -1169.6658      1233.4785     -856.63797    
  32146000   247.87536     -418.52364     -335.50695     -418.496        0              4246.2617      30.923         21.319344      32.718129      21569.691      4705.1595      4434.4512      3599.1744     -1218.4363      1201.5469      72.930892    
  32148000   239.70002     -416.42128     -336.14262     -416.40918      0              5166.4786      30.923         21.319344      32.71667       21568.729      5019.778       6113.6896      4365.9682      607.02406     -873.92319      140.65395    
  32150000   244.97196     -415.66534     -333.62104     -415.64507      0              7846.4332      30.923         21.319344      32.572226      21473.503      9779.1279      6686.2022      7073.9694      6.4762442     -762.17359     -538.67065    
  32152000   241.37472     -419.77757     -338.93803     -419.77839      0              5710.7075      30.923         21.319344      32.655616      21528.479      6797.6747      4914.9189      5419.529       968.14075      621.99744      109.43559    
  32154000   241.89665     -417.41452     -336.40018     -417.41844      0              5356.1058      30.923         21.319344      32.650304      21524.976      5126.0524      4763.0077      6179.2572     -332.23445     -797.7987       526.3682     
  32156000   251.98883     -418.19815     -333.80381     -418.1764       0              4415.4305      30.923         21.319344      32.774021      21606.538      3210.5603      4868.1671      5167.5642     -776.57893      1571.5616      1827.991     
  32158000   243.81921     -417.97639     -336.31816     -417.97096      0              4787.7655      30.923         21.319344      32.710768      21564.838      4552.4787      4716.529       5094.2888      508.89597     -988.57929      998.9203     
  32160000   243.61485     -419.82021     -338.23042     -419.82023      0              4932.5983      30.923         21.319344      32.495318      21422.801      6040.4077      4127.9129      4629.4742      1482.9416      469.43904      555.07159    
  32162000   249.3596      -420.06391     -336.55013     -420.06911      0              5197.5715      30.923         21.319344      32.522339      21440.614      4510.5337      5845.1781      5237.0025      989.57766      1032.035       333.25666    
  32164000   241.71301     -417.91605     -336.96321     -417.91719      0              6321.6412      30.923         21.319344      32.503901      21428.459      10085.615      3564.5792      5314.7292     -1108.5761     -1500.3118      248.95501    
  32166000   250.96381     -419.05361     -335.00255     -419.0554       0              6262.0069      30.923         21.319344      32.252498      21262.72       6434.7111      7061.4666      5289.843       2386.8598      322.06262      2562.413     
  32168000   246.93138     -417.37134     -334.6708      -417.37264      0              6599.2104      30.923         21.319344      32.186414      21219.154      7526.4453      5952.7291      6318.4569     -280.82451      546.29394     -494.44257    
  32170000   242.27391     -419.67644     -338.53575     -419.68155      0              5544.8729      30.923         21.319344      32.180779      21215.438      6482.7919      5726.4017      4425.425       685.12244     -889.44139      2133.9259    
  32172000   245.32531     -420.53569     -338.37305     -420.54326      0              7531.465       30.923         21.319344      32.178376      21213.854      7936.8372      7349.8711      7307.6868     -24.231696      1287.9566      934.95013    
  32174000   243.7093      -417.44804     -335.82662     -417.44989      0              3572.811       30.923         21.319344      32.435837      21383.587      3153.9239      2946.7358      4617.7733     -329.40728     -654.90404      1096.2369    
  32176000   251.20424     -420.06388     -335.93231     -420.06605      0              9560.9115      30.923         21.319344      32.421177      21373.923      9664.4825      9547.1968      9471.0553     -13.343064      1919.5915     -568.37021    
  32178000   246.65126     -419.73753     -337.13081     -419.73637      0              4778.8425      30.923         21.319344      32.45624       21397.038      6456.3828      2678.4812      5201.6635     -454.48626     -1771.9548     -611.4118     
  32180000   247.22823     -420.29388     -337.49392     -420.29032      0              6120.2149      30.923         21.319344      32.390082      21353.423      6754.3185      6800.4292      4805.8972     -1279.7057      1338.6996     -421.10093    
  32182000   242.85521     -418.53249     -337.19711     -418.54346      0              6136.982       30.923         21.319344      32.633485      21513.889      6911.1034      7356.0006      4143.842       619.85694     -1118.4116      490.00277    
  32184000   240.77441     -418.83253     -338.19404     -418.83996      0              5171.0685      30.923         21.319344      32.638222      21517.012      4561.1092      6579.9614      4372.1349      496.62481     -607.94346     -1153.2025    
  32186000   240.65752     -418.51249     -337.91315     -418.51426      0              6589.163       30.923         21.319344      32.462241      21400.995      8142.9679      5873.1937      5751.3272      252.67409      143.30596      184.2857     
  32188000   243.28713     -419.09071     -337.61068     -419.10388      0              5708.9931      30.923         21.319344      32.471994      21407.424      5929.5347      5131.7365      6065.7083      620.87116     -623.92648     -1000.6081    
  32190000   247.41866     -420.07721     -337.21348     -420.09996      0              2449.8395      30.923         21.319344      32.476374      21410.312      3098.9711      590.8761       3659.6713      635.46023      614.41654      1060.4935    
  32192000   247.3795      -418.28761     -335.43699     -418.29563      0              7050.4014      30.923         21.319344      32.552038      21460.194      7036.7769      6453.3859      7661.0412      1713.2357     -1407.7444     -872.6801     
  32194000   245.67345     -421.19221     -338.91296     -421.20294      0              6434.6652      30.923         21.319344      32.471092      21406.83       6579.9684      6625.7363      6098.2908     -256.15272     -372.67677     -1281.8886    
  32196000   247.35297     -417.76539     -334.92365     -417.76398      0              7675.0378      30.923         21.319344      32.489202      21418.769      8197.8012      7661.5474      7165.7649      64.692528      1813.7852     -444.68126    
  32198000   250.69534     -418.00583     -334.04469     -418.00636      0              6697.6993      30.923         21.319344      32.388         21352.051      6810.9097      6959.5942      6322.5938      2102.8845      1046.156      -702.2151     
  32200000   243.96109     -417.92206     -336.21631     -417.92329      0              3997.3809      30.923         21.319344      32.386215      21350.874      4530.9792      3744.5909      3716.5725     -328.05479      1072.6986     -1462.2244    
  32202000   244.88969     -417.9406      -335.92385     -417.93635      0              6470.9023      30.923         21.319344      32.387927      21352.002      7240.7641      5849.7416      6322.2013      1967.6654     -284.75328     -821.88972    
  32204000   243.77426     -418.06665     -336.42347     -418.07026      0              7538.1496      30.923         21.319344      32.289919      21287.39       5016.1572      8707.481       8890.8104     -179.04902      195.62729      1120.5499    
  32206000   242.21001     -419.82067     -338.70138     -419.82041      0              5334.9715      30.923         21.319344      32.419466      21372.795      3095.0157      8522.4629      4387.4359     -754.51904      591.02793      312.75443    
  32208000   243.24231     -420.29329     -338.82827     -420.29831      0              5354.3466      30.923         21.319344      32.555993      21462.801      6026.6666      5209.8485      4826.5247      1612.0769     -1281.6067     -1354.1678    
  32210000   246.3847      -420.20339     -337.68595     -420.20755      0              6199.1241      30.923         21.319344      32.260242      21267.825      4757.7824      9819.9723      4019.6175     -1131.4802     -774.30243     -1183.2487    
  32212000   246.66393     -417.25918     -334.64822     -417.26067      0              6059.21        30.923         21.319344      32.362341      21335.135      8228.8868      4428.8087      5519.9346     -1326.3925     -1103.6249     -654.63528    
  32214000   244.05263     -417.87892     -336.14251     -417.87652      0              7592.296       30.923         21.319344      32.456531      21397.23       7347.7771      7384.9875      8044.1233     -529.95346     -584.52449     -539.47912    
  32216000   247.53466     -419.15165     -336.24907     -419.15739      0              5356.5247      30.923         21.319344      32.493175      21421.388      5105.1714      5941.1019      5023.3007      2480.6498     -7.4588874      967.82672    
  32218000   249.52609     -419.73808     -336.16854     -419.74411      0              6502.0614      30.923         21.319344      32.521412      21440.003      5361.4327      7969.6396      6175.1119      979.90556      1295.1        -296.5839     
  32220000   250.52971     -418.78009     -334.87442     -418.78637      0              6532.9972      30.923         21.319344      32.467668      21404.572      4844.2599      8550.336       6204.3957     -280.54608     -1237.8831     -1499.3297    
  32222000   247.30249     -419.01848     -336.19366     -419.00649      0              6567.8912      30.923         21.319344      32.361415      21334.524      6998.1395      6791.48        5914.0541      278.23271      447.06699     -32.076327    
  32224000   240.06691     -418.10062     -337.69909     -418.1028       0              6525.5384      30.923         21.319344      32.296833      21291.948      6567.2193      6247.1317      6762.2642     -948.20125      936.97833     -799.63218    
  32226000   247.70617     -418.70709     -335.74706     -418.70872      0              8385.4202      30.923         21.319344      32.437729      21384.835      8595.398       8266.9638      8293.8988      1634.3266     -861.21655     -1542.4726    
  32228000   240.965       -418.92968     -338.22736     -418.92526      0              6913.9674      30.923         21.319344      32.480223      21412.849      6605.103       6809.6562      7327.143      -924.78042     -364.1207      -863.30627    
  32230000   244.11781     -420.37901     -338.62078     -420.38098      0              5684.5253      30.923         21.319344      32.518243      21437.915      5394.2745      6018.2538      5641.0476      179.43479      1657.8272     -655.30717    
  32232000   244.08264     -420.47175     -338.72529     -420.47217      0              4619.7112      30.923         21.319344      32.594065      21487.901      4531.7699      3703.287       5624.0768     -551.01649     -759.72635      1673.0297    
  32234000   250.95283     -421.35694     -337.30957     -421.36064      0              6879.445       30.923         21.319344      32.426618      21377.51       7515.4139      6885.0312      6237.8899     -668.52329      1020.5644     -2135.218     
  32236000   246.0979      -421.81609     -339.3947      -421.82293      0              6047.2219      30.923         21.319344      32.43483       21382.924      7016.3059      5838.4165      5286.9433     -266.26764      2068.3996     -656.75009    
  32238000   251.70857     -420.48909     -336.18861     -420.49803      0              6933.4909      30.923         21.319344      32.357925      21332.223      5484.1132      6757.6645      8558.6949      1175.4001      193.41399     -698.04235    
  32240000   245.26906     -421.2073      -339.0635      -421.2204       0              6663.4432      30.923         21.319344      32.483885      21415.263      6968.1963      7885.4661      5136.667      -97.049845      2250.4419     -535.56515    
  32242000   239.44155     -421.81526     -341.62317     -421.82306      0              6441.639       30.923         21.319344      32.430796      21380.264      6228.3247      7255.5118      5841.0805      615.98563     -527.82401     -2290.6279    
  32244000   248.17497     -421.79951     -338.68247     -421.8017       0              5107.4974      30.923         21.319344      32.577709      21477.117      6622.9404      2405.2541      6294.2977      753.11688     -838.29502      1334.4276    
  32246000   243.51162     -418.55889     -337.00367     -418.562        0              4873.1328      30.923         21.319344      32.631356      21512.485      3632.4807      5254.5337      5732.384      -63.166156     -349.47958      519.52009    
  32248000   245.72151     -419.48929     -337.19395     -419.49323      0              5832.7016      30.923         21.319344      32.45728       21397.724      6277.831       5127.5852      6092.6884     -1061.2223     -2332.6044     -2245.7198    
  32250000   240.31783     -420.48348     -339.9979      -420.49715      0              7865.06        30.923         21.319344      32.353341      21329.201      7497.9483      5562.103       10535.129      203.41538     -303.24815     -178.94057    
  32252000   243.12675     -421.69164     -340.26532     -421.70777      0              4553.3127      30.923         21.319344      32.309854      21300.532      5492.7709      4693.9554      3473.2118     -146.99585     -1376.8595     -14.64282     
  32254000   247.67184     -419.42589     -336.47736     -419.42712      0              5254.6657      30.923         21.319344      32.433366      21381.959      6408.5373      4722.7154      4632.7445      350.86242     -297.32451     -1384.9168    
  32256000   246.69922     -420.40656     -337.78377     -420.41418      0              8588.8433      30.923         21.319344      32.396231      21357.477      8497.2588      8931.7468      8337.5245      391.42844     -253.09668     -81.524022    
  32258000   243.64934     -419.93164     -338.3303      -419.92603      0              3141.3856      30.923         21.319344      32.517907      21437.693      4070.1657      4418.522       935.4691       1217.4477     -830.96493     -1069.8985    
  32260000   241.20732     -420.87323     -340.08976     -420.87523      0              5936.2604      30.923         21.319344      32.565934      21469.355      7892.9996      5184.7066      4731.075      -1914.3861     -1804.9863      1110.1526    
  32262000   245.90303     -419.27899     -336.92286     -419.28486      0              4313.9152      30.923         21.319344      32.437792      21384.877      5949.7568      4561.8419      2430.1467     -1577.1619     -103.26014     -831.21702    
  32264000   242.43724     -419.2488      -338.05341     -419.25072      0              5729.4936      30.923         21.319344      32.398414      21358.916      7103.1063      5770.868       4314.5066     -1139.794      -341.47223     -1485.5866    
  32266000   245.98031     -420.98008     -338.59807     -420.98025      0              5262.6334      30.923         21.319344      32.490804      21419.825      3247.7965      4643.851       7896.2528      1805.894       158.11065     -374.15689    
  32268000   248.83971     -421.5812      -338.24153     -421.58683      0              4903.95        30.923         21.319344      32.396735      21357.809      4135.277       5570.1276      5006.4453      865.03726     -143.62488      216.51313    
  32270000   249.20168     -418.33035     -334.86946     -418.33481      0              5912.4312      30.923         21.319344      32.428894      21379.01       6455.4308      5052.397       6229.4658      502.92679      621.82598     -283.63385    
  32272000   243.95955     -419.37109     -337.66586     -419.36524      0              6270.5746      30.923         21.319344      32.562199      21466.892      5871.6912      6177.204       6762.8287      2403.7711     -870.58139     -62.82307     
  32274000   242.38235     -419.68167     -338.50466     -419.68465      0              4762.1324      30.923         21.319344      32.372527      21341.85       2958.18        5430.3173      5897.8998      94.82881      -401.78544     -213.42207    
  32276000   241.02646     -422.37483     -341.65193     -422.3864       0              6721.9498      30.923         21.319344      32.477887      21411.309      6256.7874      7851.6425      6057.4195      963.64434      392.1443       418.19004    
  32278000   247.86725     -417.89815     -334.88418     -417.89966      0              6500.178       30.923         21.319344      32.353381      21329.228      6515.9967      7191.2824      5793.2549     -680.48359      721.38075     -1320.6041    
  32280000   247.10346     -419.02772     -336.26956     -419.02557      0              8240.2498      30.923         21.319344      32.417923      21371.777      8364.9748      7177.7555      9178.019      -258.37043     -709.60601     -1327.6474    
  32282000   248.43827     -419.00983     -335.80461     -419.01184      0              5314.4221      30.923         21.319344      32.403197      21362.069      4768.458       3780.1302      7394.678      -1317.9927     -713.99729      928.81344    
  32284000   247.46748     -418.65203     -335.77194     -418.65337      0              6182.7023      30.923         21.319344      32.508785      21431.679      6245.5011      5186.3896      7116.2163      1777.2774     -734.05014     -903.96694    
  32286000   253.69382     -422.74666     -337.7813      -422.75122      0              7836.134       30.923         21.319344      32.422338      21374.688      6889.7491      7167.8037      9450.8494      199.04432     -1904.0354     -66.039453    
  32288000   246.70228     -421.4924      -338.86859     -421.50132      0              5470.1906      30.923         21.319344      32.452594      21394.634      5096.4034      5929.0651      5385.1034      1007.6555     -533.1411       2002.9516    
  32290000   243.63227     -418.62595     -337.03033     -418.63078      0              4591.4337      30.923         21.319344      32.626185      21509.076      5941.7691      4350.5053      3482.0267     -2048.7747     -196.03124     -413.72786    
  32292000   245.55418     -420.4341      -338.19481     -420.43931      0              5460.7065      30.923         21.319344      32.644784      21521.337      3358.0401      6263.6716      6760.4078      1803.9125      117.44901      185.9635     
  32294000   246.67505     -421.5842      -338.96951     -421.5853       0              7228.2838      30.923         21.319344      32.523963      21441.685      6825.4773      6877.7812      7981.593      -683.10299      859.94069      672.95521    
  32296000   242.71272     -420.63083     -339.34317     -420.63596      0              5779.9891      30.923         21.319344      32.537656      21450.712      6351.5374      6227.418       4761.0119      2402.0313      418.18281     -1037.5819    
  32298000   248.47214     -421.93143     -338.71487     -421.93099      0              6513.7239      30.923         21.319344      32.692947      21553.089      7216.9192      6175.5257      6148.7268     -1946.3285     -1193.8522     -1137.5773    
  32300000   248.15279     -422.12409     -339.01448     -422.13397      0              3953.393       30.923         21.319344      32.687962      21549.803      3758.7864      4262.6051      3838.7876     -343.17522      33.6419       -1300.4047    
  32302000   249.00373     -421.82417     -338.42957     -421.82427      0              5882.6911      30.923         21.319344      32.828459      21642.427      6991.3565      5234.164       5422.5528     -384.0391      -1702.8576     -16.991107    
  32304000   238.78377     -423.22464     -343.25284     -423.22741      0              5389.265       30.923         21.319344      32.651063      21525.477      6100.7546      6498.8301      3568.2103      2364.3702     -1831.5437     -310.09018    
  32306000   245.82274     -420.94019     -338.61095     -420.94218      0              7126.3171      30.923         21.319344      32.60458       21494.833      7579.3897      7310.9682      6488.5934     -328.76428     -1674.396      -1187.7759    
  32308000   242.26127     -422.63896     -341.50251     -422.64611      0              6051.35        30.923         21.319344      32.501784      21427.063      6523.4757      5676.3056      5954.2685     -490.26507     -1734.2438      560.42673    
  32310000   246.82736     -420.51631     -337.85061     -420.51695      0              5848.6747      30.923         21.319344      32.443772      21388.819      4332.3513      5998.4921      7215.1808      459.53269      2182.9952      634.87904    
  32312000   247.99618     -418.61643     -335.55928     -418.62313      0              8932.1788      30.923         21.319344      32.526828      21443.574      7731.7498      9402.3305      9662.456      -482.469       -854.81879     -2568.5058    
  32314000   235.53498     -422.76392     -343.88019     -422.77259      0              5308.7819      30.923         21.319344      32.721821      21572.125      3465.3743      7498.3612      4962.6102     -261.13844      464.66072     -1509.7628    
  32316000   248.73725     -419.97192     -336.66657     -419.97523      0              7009.2792      30.923         21.319344      32.587698      21483.703      7320.0917      8515.635       5192.1111     -1056.9421      605.05834     -990.68244    
  32318000   243.66119     -420.91729     -339.31198     -420.92153      0              5778.9556      30.923         21.319344      32.520287      21439.262      7178.0556      5194.1443      4964.6668      731.49648     -90.948342     -2404.9057    
  32320000   243.87063     -419.73075     -338.0553      -419.73572      0              5648.7752      30.923         21.319344      32.641715      21519.314      6483.4986      6561.2366      3901.5904      1700.9557      1694.1357      802.37319    
  32322000   246.51138     -416.87023     -334.31035     -416.88306      0              6265.0468      30.923         21.319344      32.483637      21415.1        5307.4875      8311.6649      5175.988      -269.64239     -47.522617     -1800.9828    
  32324000   238.7928      -420.82462     -340.8498      -420.8311       0              6841.7862      30.923         21.319344      32.551302      21459.709      6115.0151      7633.8572      6776.4864      550.751       -1322.609      -635.34545    
  32326000   244.80676     -418.17137     -336.18239     -418.18231      0              8844.2202      30.923         21.319344      32.664179      21534.124      6797.279       11572.455      8162.9264     -504.13934      379.91074     -966.83605    
  32328000   239.3795      -421.32745     -341.15614     -421.33587      0              4376.1575      30.923         21.319344      32.774675      21606.969      6020.9654      3608.4597      3499.0475     -533.26946     -1899.0322      316.67029    
  32330000   245.60952     -420.61738     -338.35955     -420.64426      0              6643.9801      30.923         21.319344      32.699642      21557.503      5801.422       7799.4983      6331.0198     -82.368863      340.07344     -1006.8058    
  32332000   245.87872     -420.79296     -338.44498     -420.80038      0              4603.8576      30.923         21.319344      32.588889      21484.488      5121.6266      4886.3932      3803.5531      281.99291     -1003.243       135.17226    
  32334000   245.9397      -422.4285      -340.06009     -422.44482      0              6549.0556      30.923         21.319344      32.568182      21470.837      5071.716       5532.5038      9042.9471      872.09089     -166.9269       1225.6029    
  32336000   239.20878     -419.66739     -339.55325     -419.68577      0              4647.3143      30.923         21.319344      32.607078      21496.48       7379.7466      2920.4546      3641.7415      87.467027     -112.37528     -882.14554    
  32338000   243.96425     -422.74018     -341.03338     -422.7533       0              7430.2228      30.923         21.319344      32.639385      21517.778      7580.7208      6847.0399      7862.9076     -158.70603     -1028.3294     -1243.6869    
  32340000   250.54197     -419.78063     -335.87086     -419.80069      0              6655.7197      30.923         21.319344      32.582945      21480.57       5920.7359      6614.1192      7432.3038      1147.1802     -1414.077       203.94915    
  32342000   238.8168      -420.75829     -340.77543     -420.76902      0              5698.2015      30.923         21.319344      32.634975      21514.871      6130.9784      4389.1969      6574.4291      1144.2657     -1357.7986     -95.043832    
  32344000   246.94233     -420.69028     -337.98607     -420.69933      0              3789.5519      30.923         21.319344      32.658166      21530.16       4864.1115      2964.534       3540.0103     -284.22482     -315.52053      201.89494    
  32346000   243.47445     -420.94607     -339.4033      -420.94658      0              7131.2213      30.923         21.319344      32.588284      21484.09       6879.7795      5643.2518      8870.6326     -551.68368      291.79728      1030.0633    
  32348000   252.40407     -420.50623     -335.97281     -420.51946      0              6816.6041      30.923         21.319344      32.670775      21538.472      6251.7629      8145.0896      6052.9597      648.18832     -320.61154     -1578.5004    
  32350000   239.63354     -422.34137     -342.08497     -422.35285      0              8380.6632      30.923         21.319344      32.663123      21533.427      8465.1424      7123.2725      9553.5745     -252.02432     -1943.9973      455.06542    
  32352000   237.08218     -417.09195     -337.69004     -417.09763      0              6041.5099      30.923         21.319344      32.603551      21494.154      5755.243       4285.6142      8083.6725     -139.43822     -1119.5032      945.31607    
  32354000   250.52593     -419.75907     -335.85467     -419.76557      0              5765.86        30.923         21.319344      32.723777      21573.414      5865.1044      5390.6318      6041.844       1599.2176      2220.8669     -272.10955    
  32356000   242.68682     -421.22604     -339.94706     -421.24899      0              6468.3165      30.923         21.319344      32.559995      21465.439      6668.8793      5817.9564      6918.1138     -761.88699      1629.6253     -269.62688    
  32358000   251.56482     -423.85711     -339.60477     -423.87638      0              8991.1557      30.923         21.319344      32.61713       21503.106      9444.4906      10261.166      7267.811       1186.6503     -1081.3895     -507.97005    
  32360000   244.11204     -423.08367     -341.32737     -423.10052      0              5188.233       30.923         21.319344      32.672553      21539.644      3374.4009      7060.1631      5130.1351      1002.2941     -1326.8827     -2072.3319    
  32362000   247.10467     -422.28016     -339.52159     -422.28784      0              5363.5284      30.923         21.319344      32.650573      21525.154      6320.4589      3882.2775      5887.8487      968.38501     -1067.693       885.31201    
  32364000   248.42581     -419.1904      -335.98936     -419.20653      0              5869.2324      30.923         21.319344      32.742646      21585.854      4848.135       6505.4213      6254.141      -51.972768     -1182.0459     -1127.3186    
  32366000   245.27939     -421.92786     -339.78059     -421.94682      0              5084.6179      30.923         21.319344      32.757093      21595.378      4041.9133      6177.7141      5034.2264      1320.9607      197.08458     -1186.52      
  32368000   244.60608     -419.09058     -337.16881     -419.09657      0              5408.008       30.923         21.319344      32.78903       21616.433      5578.6922      6057.0917      4588.2402     -399.77185      969.06644     -1310.2659    
  32370000   244.88759     -419.28647     -337.27042     -419.29769      0              7669.794       30.923         21.319344      32.417594      21371.561      7556.8274      7888.8178      7563.7369     -1377.5369     -416.86864     -105.37156    
  32372000   247.71614     -419.81071     -336.84734     -419.82183      0              7922.163       30.923         21.319344      32.514798      21435.643      6664.1458      8098.7493      9003.5941      593.6137      -599.70207     -1383.0592    
  32374000   246.08411     -419.37374     -336.95697     -419.38651      0              7708.6826      30.923         21.319344      32.603955      21494.421      7779.2053      6050.7818      9296.0608      1782.7944     -779.71132      907.93887    
  32376000   242.4254      -419.83966     -338.64823     -419.85488      0              5945.9327      30.923         21.319344      32.611336      21499.287      7377.5974      4567.5273      5892.6736     -134.36613     -667.60762      1590.2767    
  32378000   242.28752     -419.89631     -338.75106     -419.90409      0              5433.892       30.923         21.319344      32.646313      21522.345      6882.9052      5223.6763      4195.0946      781.03477      1434.0654     -599.93608    
  32380000   245.36471     -422.02506     -339.84922     -422.02976      0              5853.479       30.923         21.319344      32.681006      21545.217      4877.5436      6159.0324      6523.861       2164.1223     -664.02626     -1878.868     
  32382000   246.06284     -420.39048     -337.98083     -420.39701      0              5634.187       30.923         21.319344      32.723793      21573.425      5574.4496      6174.3987      5153.7126      705.06886     -84.53576      -167.35654    
  32384000   247.5979      -421.7686      -338.84484     -421.78193      0              3992.2517      30.923         21.319344      32.623942      21507.597      2818.885       5337.8804      3819.9897      2360.6058      672.31736     -1310.1453    
  32386000   247.67122     -420.57102     -337.6227      -420.58537      0              4484.0645      30.923         21.319344      32.778336      21609.382      5896.7259      3631.1798      3924.2878     -39.188163     -362.95445     -530.80052    
  32388000   249.44897     -416.23763     -332.69392     -416.23419      0              6487.7532      30.923         21.319344      32.719443      21570.557      6781.3085      6328.1067      6353.8443     -784.57588      295.19596     -1486.3777    
  32390000   249.24162     -420.28128     -336.80701     -420.29787      0              6165.1594      30.923         21.319344      32.723626      21573.315      6449.5838      5722.3141      6323.5803      3095.3337     -447.0514      -361.76073    
  32392000   250.08004     -419.52206     -335.767       -419.52613      0              6078.2025      30.923         21.319344      32.706955      21562.324      6959.1099      7553.4088      3722.0889     -588.55442     -60.332361     -641.19134    
  32394000   242.03768     -420.10035     -339.03878     -420.09949      0              4946.4795      30.923         21.319344      32.799304      21623.206      2212.8966      6289.085       6337.4569      602.14932      2179.6013      13.079792    
  32396000   245.44713     -420.51552     -338.31207     -420.52154      0              8022.5405      30.923         21.319344      32.571028      21472.713      7561.1714      8298.529       8207.9212      460.01542      1245.4253      120.90644    
  32398000   244.17164     -418.51482     -336.73855     -418.52868      0              6425.5581      30.923         21.319344      32.550039      21458.876      6361.4701      7890.512       5024.6923      154.9187       343.11855     -997.90417    
  32400000   249.99371     -418.69698     -334.97083     -418.70771      0              6965.0576      30.923         21.319344      32.385598      21350.467      5590.3191      10694.193      4610.6605      903.84708      1928.213      -1808.5166    
  32402000   256.01346     -420.65413     -334.91189     -420.66761      0              7816.9497      30.923         21.319344      32.382514      21348.434      9027.1865      7644.5278      6779.1349     -1034.7743      723.82794     -987.26928    
  32404000   255.27175     -420.49565     -335.00181     -420.49839      0              6413.3757      30.923         21.319344      32.580297      21478.824      3776.7035      7252.8543      8210.5694     -187.94921      2515.3046     -1144.709     
  32406000   247.34661     -420.76773     -337.92812     -420.77886      0              6361.785       30.923         21.319344      32.503898      21428.457      5307.8468      4945.6002      8831.908       550.38656     -306.55534      947.69841    
  32408000   245.16747     -418.36766     -336.25787     -418.37125      0              4843.6098      30.923         21.319344      32.439498      21386.001      5570.0287      2547.2617      6413.5389     -166.2597       149.55645      1161.7454    
  32410000   241.16536     -416.41582     -335.6464      -416.40397      0              6072.6409      30.923         21.319344      32.776994      21608.498      7486.1649      6914.5115      3817.2462      874.06083     -1121.6807     -1204.2258    
  32412000   243.29681     -417.05402     -335.57075     -417.05706      0              6489.6048      30.923         21.319344      32.531232      21446.478      6291.629       7125.7597      6051.4256      229.05952     -917.23324     -8.0110287    
  32414000   240.31193     -418.68974     -338.20615     -418.69609      0              5380.9076      30.923         21.319344      32.519159      21438.518      3668.2498      7228.0118      5246.4611      1271.4363      263.27803     -38.787546    
  32416000   242.00035     -418.12777     -337.07869     -418.12967      0              6211.2923      30.923         21.319344      32.667715      21536.455      7582.891       6361.8961      4689.0898      1604.4749     -33.279218     -1358.6562    
  32418000   246.5643      -418.71116     -336.13356     -418.70819      0              6287.5878      30.923         21.319344      32.661356      21532.263      5828.2871      6094.4622      6940.0142     -255.76326      209.68891     -2626.2192    
  32420000   247.25217     -421.88236     -339.07438     -421.88169      0              5762.4503      30.923         21.319344      32.559366      21465.025      6861.8195      5610.3539      4815.1776      1050.9289      1200.8528      803.5639     
  32422000   242.22698     -420.27189     -339.14692     -420.27331      0              5808.4973      30.923         21.319344      32.698464      21556.727      5469.8767      5872.341       6083.2741      1491.0049      421.70388     -447.86924    
  32424000   250.21665     -421.0648      -337.26398     -421.06782      0              5124.5971      30.923         21.319344      32.570248      21472.199      3689.9149      5815.9511      5867.9252      264.34556      279.0641       1806.9931    
  32426000   239.23253     -416.78544     -336.66334     -416.77743      0              6334.0015      30.923         21.319344      32.564273      21468.26       7676.6314      6064.4904      5260.8827      1734.4949     -1577.884      -518.61369    
  32428000   249.04485     -418.04462     -334.63625     -418.05088      0              6746.7889      30.923         21.319344      32.57401       21474.679      6665.2474      6827.4852      6747.6342     -250.6094      -532.58689     -473.59852    
  32430000   246.77383     -417.64868     -335.00091     -417.62171      0              4050.3908      30.923         21.319344      32.536291      21449.813      3534.7217      4526.0059      4090.4449     -2017.9527     -25.454649      746.02543    
  32432000   246.59793     -419.24869     -336.65982     -419.24966      0              4318.3851      30.923         21.319344      32.41443       21369.474      3897.2831      4666.9615      4390.9106     -856.57509     -757.09203     -234.76992    
  32434000   247.54939     -419.76423     -336.85672     -419.75216      0              6166.6716      30.923         21.319344      32.710671      21564.774      6550.495       6188.4181      5761.1019      873.06617      253.23851      341.35285    
  32436000   240.17398     -420.96243     -340.52504     -420.96371      0              6642.7004      30.923         21.319344      32.525935      21442.985      6874.8244      7269.6103      5783.6665     -92.280436     -28.060276     -30.118045    
  32438000   249.87585     -415.85741     -332.17073     -415.84972      0              7022.6076      30.923         21.319344      32.520742      21439.562      5198.4199      7511.4462      8357.9568     -199.23439     -393.4767       644.89974    
  32440000   244.63339     -418.37269     -336.44178     -418.36848      0              6545.5393      30.923         21.319344      32.55727       21463.643      4965.1377      9592.0118      5079.4685      11.571777     -82.588682     -310.85167    
  32442000   255.8206      -418.0387      -332.36104     -418.0347       0              7383.1745      30.923         21.319344      32.5583        21464.322      8831.947       6690.0463      6627.5303      460.4717       1148.9538     -342.00362    
  32444000   246.41632     -420.75754     -338.2295      -420.76841      0              7059.5385      30.923         21.319344      32.474659      21409.181      7480.5275      7669.997       6028.091      -400.16144      577.711        298.08846    
  32446000   249.022       -419.78018     -336.37946     -419.77486      0              7134.5456      30.923         21.319344      32.39066       21353.804      4887.2392      8297.3696      8219.028       285.56425      1049.621      -901.15636    
  32448000   242.70773     -418.71023     -337.42425     -418.712        0              5959.6541      30.923         21.319344      32.445733      21390.112      4835.5701      6280.5631      6762.8291      318.66779     -96.243709      305.41278    
  32450000   248.69079     -418.16639     -334.8766      -418.1695       0              6912.9152      30.923         21.319344      32.458242      21398.358      6812.2863      6512.5426      7413.9167      633.04731     -967.7072       151.575      
  32452000   249.27569     -418.83455     -335.34887     -418.8409       0              5831.264       30.923         21.319344      32.647565      21523.171      7022.9667      6433.575       4037.2502      955.65304      1682.5647      857.56062    
  32454000   234.14672     -419.09744     -340.67865     -419.10362      0              5493.598       30.923         21.319344      32.480328      21412.918      4931.9811      5906.0622      5642.7506     -2358.6315      333.77459     -1233.9498    
  32456000   247.40281     -417.87811     -335.01968     -417.87811      0              7603.7652      30.923         21.319344      32.512318      21434.008      9029.6233      6694.4059      7087.2664      505.00387     -9.483226       6.7181076    
  32458000   240.82382     -419.95217     -339.29714     -419.95911      0              5324.3797      30.923         21.319344      32.592886      21487.123      5668.8294      5043.0353      5261.2743      425.7275       697.44912      641.24264    
  32460000   242.95636     -420.46073     -339.09148     -420.47515      0              5463.678       30.923         21.319344      32.541641      21453.34       5381.4689      5008.2127      6001.3524      862.127       -273.70518      475.77835    
  32462000   246.56018     -420.41272     -337.8365      -420.41462      0              5186.0244      30.923         21.319344      32.489055      21418.672      5449.6776      6689.6848      3418.7109      24.621475      544.89293     -2529.3766    
  32464000   246.15185     -419.07084     -336.63138     -419.07829      0              6870.6488      30.923         21.319344      32.475057      21409.443      6543.0806      7490.2934      6578.5724      1136.4527     -1204.4414      1050.834     
  32466000   245.06558     -420.18413     -338.10847     -420.1919       0              8613.3912      30.923         21.319344      32.39923       21359.454      8828.1704      7765.6456      9246.3576      395.94765     -161.57865      564.2342     
  32468000   249.04153     -416.83982     -333.43256     -416.81569      0              5648.7798      30.923         21.319344      32.505058      21429.222      6374.953       6714.2645      3857.1218     -241.88272      147.16684     -1836.051     
  32470000   244.00191     -419.2939      -337.57448     -419.302        0              7089.6147      30.923         21.319344      32.381624      21347.847      7455.8142      7779.3803      6033.6495     -148.61679     -1747.6206      476.86877    
  32472000   244.26163     -420.51641     -338.71        -420.52408      0              7191.8816      30.923         21.319344      32.329023      21313.169      6365.1096      6060.1082      9150.4268     -166.40411      675.52674      1037.8041    
  32474000   237.94194     -417.45548     -337.76563     -417.45952      0              4442.0133      30.923         21.319344      32.534822      21448.844      4459.2949      5739.7155      3127.0294     -294.58372     -749.6029      -711.09245    
  32476000   239.87049     -419.42085     -339.08509     -419.42322      0              6777.0717      30.923         21.319344      32.472745      21407.919      6635.589       5727.0508      7968.5754     -1390.6336      1724.4685      1133.4603    
  32478000   242.19395     -419.98562     -338.87171     -419.99861      0              6699.5055      30.923         21.319344      32.346999      21325.02       6726.8741      6511.5572      6860.0852      1211.0396     -128.52796     -848.17025    
  32480000   251.34204     -420.52934     -336.35162     -420.54059      0              6613.191       30.923         21.319344      32.496277      21423.433      7076.278       5638.0569      7125.2381      1493.4654     -1859.5654     -113.38123    
  32482000   248.0035      -418.74906     -335.68945     -418.7527       0              3168.3833      30.923         21.319344      32.604426      21494.731      3930.767       2833.0709      2741.3119      1869.3719      60.878846      1566.9314    
  32484000   246.06095     -419.26393     -336.85491     -419.26661      0              5838.7842      30.923         21.319344      32.543823      21454.778      5667.3316      6240.3352      5608.6859      434.0966      -552.77973      1772.7242    
  32486000   246.10422     -418.28677     -335.86326     -418.29398      0              5915.5627      30.923         21.319344      32.660385      21531.623      6336.6533      5184.0664      6225.9684     -207.71362      408.02262      966.41069    
  32488000   239.57217     -416.05834     -335.82249     -416.05811      0              3499.8263      30.923         21.319344      32.691462      21552.11       2463.9606      4729.1484      3306.3699      1843.4794     -1157.8547      1467.902     
  32490000   245.72376     -416.66426     -334.36817     -416.65733      0              5589.4013      30.923         21.319344      32.723272      21573.081      6024.1764      5545.4705      5198.5569      708.79416     -1558.1237     -1964.0499    
  32492000   245.4628      -418.74377     -336.53508     -418.74381      0              6719.1234      30.923         21.319344      32.539097      21451.662      5735.9523      7272.5541      7148.8639     -264.99131      5.0162734      308.59344    
  32494000   247.64682     -418.50254     -335.5624      -418.50391      0              4232.8187      30.923         21.319344      32.43985       21386.233      4820.8727      4396.3194      3481.2639     -1407.0869     -424.99998      510.74771    
  32496000   241.97479     -418.33784     -337.29732     -418.32877      0              6814.048       30.923         21.319344      32.384755      21349.911      7919.7755      6922.6765      5599.6921      1416.8282     -310.36361      2097.7718    
  32498000   244.74266     -417.61103     -335.64352     -417.61223      0              7562.3988      30.923         21.319344      32.421335      21374.027      7564.111       8267.1984      6855.8868     -575.82193      229.47185      206.21231    
  32500000   242.07595     -416.84763     -335.77323     -416.84139      0              7376.1267      30.923         21.319344      32.48591       21416.599      6821.7923      7185.92        8120.6678      633.79541     -79.209755      1304.9169    
  32502000   247.62341     -419.28616     -336.35385     -419.29097      0              6764.2321      30.923         21.319344      32.542594      21453.968      6267.3812      6334.8827      7690.4325     -299.18213      758.52185     -1137.5297    
  32504000   250.30564     -419.11719     -335.28657     -419.12753      0              5575.2633      30.923         21.319344      32.426464      21377.408      6733.3614      4215.365       5777.0635     -31.537247     -1129.9718     -362.79415    
  32506000   250.8697      -419.71559     -335.69606     -419.72279      0              6974.1501      30.923         21.319344      32.547249      21457.036      7157.3367      5264.3504      8500.7631     -754.53362     -927.83431      47.215453    
  32508000   245.95438     -418.15329     -335.77996     -418.15318      0              5571.6214      30.923         21.319344      32.469193      21405.578      5058.8897      7079.1734      4576.8012     -293.53205      317.61355      493.11227    
  32510000   242.32405     -419.73451     -338.57703     -419.72839      0              7911.761       30.923         21.319344      32.475666      21409.845      8488.4871      7309.0761      7937.7199     -785.33729      89.540615      984.79664    
  32512000   244.37116     -419.01033     -337.16724     -419.01433      0              6399.4832      30.923         21.319344      32.505152      21429.284      6514.3493      6101.8217      6582.2786     -837.7189      -387.50674      157.26275    
  32514000   244.16459     -420.43455     -338.66065     -420.44108      0              5327.6038      30.923         21.319344      32.465785      21403.331      5827.1918      4215.4871      5940.1326     -1144.5128      102.24148      684.96397    
  32516000   251.65964     -416.44444     -332.16034     -416.4445       0              5916.3818      30.923         21.319344      32.535657      21449.395      6876.4312      5328.715       5543.9993      1057.9417      711.82829      1040.1267    
  32518000   245.01232     -418.06921     -336.01139     -418.06235      0              5719.6153      30.923         21.319344      32.60618       21495.888      5432.4934      6234.9927      5491.3599     -237.89154      2106.1953     -38.556245    
  32520000   246.30615     -417.92693     -335.43579     -417.91393      0              6428.6881      30.923         21.319344      32.652858      21526.66       6530.7751      6699.1998      6056.0892      158.48066      1580.8318      1469.0048    
  32522000   239.65596     -415.49814     -335.23424     -415.49066      0              3853.0166      30.923         21.319344      32.718233      21569.759      3460.0639      4695.0956      3403.8902     -547.24797      1625.3515      579.37731    
  32524000   239.73422     -417.97445     -337.68434     -417.96487      0              5116.494       30.923         21.319344      32.793325      21619.264      5630.6498      5442.6373      4276.195       1167.5116      85.815896      516.97957    
  32526000   242.13143     -417.28504     -336.19207     -417.2868       0              7009.272       30.923         21.319344      32.456815      21397.418      7689.4367      6189.7142      7148.6652      645.88203     -208.22404      970.50645    
  32528000   242.40661     -417.6669      -336.48177     -417.65119      0              6380.2198      30.923         21.319344      32.622167      21506.427      5901.3766      8109.5391      5129.7437      213.41894      1364.0378      1550.9954    
  32530000   249.50592     -416.67671     -333.11393     -416.66846      0              5374.0368      30.923         21.319344      32.703909      21560.316      6965.0499      4725.571       4431.4895      876.02357      519.12607      2053.3826    
  32532000   250.83418     -418.77599     -334.76836     -418.75058      0              5896.1645      30.923         21.319344      32.579576      21478.349      7327.1217      5701.9275      4659.4445     -560.13169     -497.65194     -574.11115    
  32534000   240.94455     -416.04682     -335.35135     -416.01418      0              4696.3739      30.923         21.319344      32.592796      21487.064      4102.5073      4282.2914      5704.3228      21.81146      -955.53012      576.73984    
  32536000   242.21432     -417.34727     -336.22654     -417.33049      0              5352.6697      30.923         21.319344      32.678186      21543.358      7260.7071      3730.114       5067.1879     -293.25545     -642.47797      1382.4096    
  32538000   247.57563     -416.44562     -333.52931     -416.39939      0              5557.6955      30.923         21.319344      32.742051      21585.461      5774.2487      4965.9093      5932.9284      1638.6705      1257.6839      1177.3104    
  32540000   244.14214     -420.70394     -338.93755     -420.69751      0              6491.9903      30.923         21.319344      32.727856      21576.103      6720.8324      7395.2238      5359.9147     -204.26846      1553.4763      496.73666    
  32542000   251.45816     -417.06502     -332.8484      -417.04725      0              6021.451       30.923         21.319344      32.664861      21534.573      6351.677       6130.6104      5582.0657     -202.51447      350.25143     -444.93035    
  32544000   247.47578     -416.94834     -334.06547     -416.92405      0              4625.5266      30.923         21.319344      32.563747      21467.913      4358.1618      4789.8038      4728.6141      93.551456     -84.06376       264.43629    
  32546000   243.15123     -420.75028     -339.31576     -420.71226      0              8256.3537      30.923         21.319344      32.567376      21470.305      9040.6955      7619.4962      8108.8694      1766.1702      450.75498     -1225.8053    
  32548000   250.65368     -416.95257     -333.00539     -416.91223      0              5892.8243      30.923         21.319344      32.632621      21513.319      5619.8577      6971.968       5086.647       471.90056     -179.09483     -852.03897    
  32550000   242.09179     -418.30291     -337.22322     -418.26172      0              5784.1737      30.923         21.319344      32.844671      21653.114      4787.4398      7235.0255      5330.0557     -1014.4401      489.9894       239.51542    
  32552000   244.30364     -417.48676     -335.66629     -417.44063      0              4175.4778      30.923         21.319344      32.739327      21583.666      4408.7742      3870.9152      4246.7441      535.9649      -1452.6829     -1482.8367    
  32554000   242.30757     -416.86215     -335.71019     -416.8392       0              3308.3128      30.923         21.319344      32.711103      21565.059      1635.4283      2669.5005      5620.0096      1048.7938      467.14827      42.995381    
  32556000   240.72524     -415.91318     -335.29116     -415.88128      0              5489.0429      30.923         21.319344      32.775328      21607.4        6335.2307      4782.9721      5348.9258      1138.3249      425.94453      757.20841    
  32558000   241.84053     -415.33378     -334.33824     -415.28768      0              5251.8049      30.923         21.319344      32.813408      21632.504      6220.2957      3382.215       6152.9039      2066.5201      312.73064      1389.3462    
  32560000   245.64038     -417.80253     -335.53436     -417.77974      0              5920.8946      30.923         21.319344      32.786874      21615.012      5168.8192      6095.994       6497.8705      957.16246      1052.3723      787.18735    
  32562000   246.88072     -417.04786     -334.36429     -417.01133      0              6085.4007      30.923         21.319344      32.830469      21643.752      5495.0364      5830.2082      6930.9577     -537.54235      1262.671      -541.1856     
  32564000   252.04947     -417.62096     -333.20631     -417.5756       0              5250.5656      30.923         21.319344      32.902904      21691.505      5452.9436      6339.7033      3959.0501     -523.68983     -1670.6771     -932.78131    
  32566000   242.06879     -416.25927     -335.18727     -416.21334      0              5276.3307      30.923         21.319344      32.862217      21664.682      5567.8638      4126.1278      6135.0005     -1197.4496      120.26414     -519.31207    
  32568000   236.52162     -417.99939     -338.78521     -417.99058      0              5618.0635      30.923         21.319344      32.691528      21552.154      6157.3743      3269.1784      7427.6377      1874.5019     -1032.1009     -1018.9507    
  32570000   241.46118     -420.0724      -339.2039      -420.06154      0              7342.2128      30.923         21.319344      32.729718      21577.331      6795.0046      7049.9048      8181.7289      1079.9023     -1181.5655     -269.03155    
  32572000   240.78201     -420.25633     -339.6153      -420.21824      0              5871.5788      30.923         21.319344      32.766578      21601.631      5239.6505      5141.8927      7233.1933     -523.98772      353.95121      337.59824    
  32574000   242.58652     -420.0734      -338.82802     -420.0561       0              6332.0009      30.923         21.319344      32.859147      21662.658      5349.8573      7205.401       6440.7443      970.31507      1213.7702     -872.72593    
  32576000   250.99564     -417.10302     -333.04131     -417.07539      0              4656.2497      30.923         21.319344      32.866645      21667.601      5037.0062      3307.4509      5624.2919      1024.4804     -446.6348       78.308341    
  32578000   239.51723     -417.96463     -337.74719     -417.94031      0              5200.5671      30.923         21.319344      32.62731       21509.818      5763.0881      6053.381       3785.2322      496.36966     -1366.7184     -256.47189    
  32580000   240.42035     -419.87055     -339.35064     -419.82797      0              5380.8494      30.923         21.319344      32.64805       21523.491      5724.0506      6888.9371      3529.5605      2281.2427      93.29857      -80.352999    
[...]
  33148000   247.72578     -419.37914     -336.41255     -419.38833      0              5124.7202      30.923         21.319344      32.632766      21513.414      6760.3883      4663.5417      3950.2307     -1593.4001     -885.35822     -298.21193    
  33150000   243.59949     -421.33512     -339.75047     -421.34165      0              6549.9725      30.923         21.319344      32.620236      21505.154      6414.3891      7906.3401      5329.1883      1150.9362      133.61274     -744.48917    
  33152000   240.14624     -417.90238     -337.47427     -417.91107      0              5085.0264      30.923         21.319344      32.561408      21466.371      4773.0209      5169.0914      5312.9669     -362.15359      422.81272     -502.74726    
  33154000   244.36511     -418.02611     -336.18505     -418.01348      0              6618.1217      30.923         21.319344      32.604542      21494.807      6157.5644      6693.0772      7003.7237     -40.278983     -507.94888     -1516.1913    
  33156000   245.95467     -418.56407     -336.19064     -418.57241      0              6708.1863      30.923         21.319344      32.54513       21455.64       7086.547       6571.1254      6466.8864     -478.49356      88.816719     -799.15582    
  33158000   239.23656     -419.69402     -339.57058     -419.69196      0              4247.9843      30.923         21.319344      32.527077      21443.738      4702.5703      3581.4483      4459.9342      1024.5978     -1198.7588     -1816.0483    
  33160000   244.23087     -417.21714     -335.42104     -417.21943      0              7934.0899      30.923         21.319344      32.360344      21333.818      6292.0157      8667.6107      8842.6432     -529.58139      1776.9212      543.73131    
  33162000   245.15078     -415.95232     -333.84813     -415.9531       0              6149.6811      30.923         21.319344      32.389898      21353.302      5939.8484      6009.641       6499.5538     -1490.3        -374.40018      1459.3859    
  33164000   246.88329     -415.65957     -332.97514     -415.64198      0              7557.2339      30.923         21.319344      32.415184      21369.972      9864.7931      5923.3101      6883.5983      323.46323     -162.19513     -245.60302    
  33166000   244.94944     -417.37735     -335.34059     -417.35527      0              7463.2549      30.923         21.319344      32.550485      21459.17       6640.0085      8645.1293      7104.6268      933.43383     -1098.2431     -777.93991    
  33168000   254.11278     -418.46304     -333.35735     -418.46546      0              5898.5935      30.923         21.319344      32.703032      21559.738      5012.7261      6421.2139      6261.8407      422.24396      406.15383      33.671992    
  33170000   242.7524      -419.02438     -337.72343     -419.02292      0              4875.4963      30.923         21.319344      32.498064      21424.611      5977.5446      3152.744       5496.2004      1025.2429     -438.46587     -465.27119    
  33172000   242.13411     -421.09358     -339.99971     -421.08431      0              6384.7052      30.923         21.319344      32.522631      21440.807      5792.7776      6159.8479      7201.4901      939.37461      515.61012      1355.9035    
  33174000   245.44259     -418.67717     -336.47525     -418.67966      0              7189.3654      30.923         21.319344      32.550181      21458.97       7487.0951      7772.0401      6308.9611      82.877304     -2493.0459      276.4695     
  33176000   242.38443     -418.19111     -337.01341     -418.17501      0              4491.098       30.923         21.319344      32.581325      21479.502      5755.1886      4830.4384      2887.6671      1020.5245     -1121.4108     -547.96333    
  33178000   246.89766     -419.15932     -336.47007     -419.14395      0              4911.6677      30.923         21.319344      32.594878      21488.437      6806.3759      2313.7639      5614.8633      623.17568     -1093.6845     -1302.1612    
  33180000   244.81898     -418.45346     -336.4604      -418.44571      0              4923.6614      30.923         21.319344      32.66467       21534.447      6718.8578      5367.1723      2684.9542     -1675.8881      502.60438     -556.19982    
  33182000   248.20015     -418.70011     -335.57464     -418.69539      0              6375.9002      30.923         21.319344      32.684305      21547.392      5377.2546      9016.4313      4734.0146      702.86475     -1386.2441     -740.12442    
  33184000   237.23176     -418.12014     -338.66813     -418.12419      0              5061.3937      30.923         21.319344      32.665434      21534.951      5513.571       4280.9581      5389.6521      104.89867      1951.5637      279.07758    
  33186000   238.6404      -417.11517     -337.19139     -417.08676      0              4340.235       30.923         21.319344      32.792772      21618.9        3815.8361      4142.2343      5062.6347     -1611.7483      52.432325     -66.477699    
  33188000   244.26137     -417.41153     -335.60522     -417.37724      0              5661.3364      30.923         21.319344      32.706477      21562.009      4651.8022      5970.2091      6361.9979     -1252.5425     -463.1233      -744.53546    
  33190000   240.98359     -420.27476     -339.56622     -420.26004      0              4857.5934      30.923         21.319344      32.723151      21573.002      5628.2601      4251.1302      4693.3897      2621.3503     -1515.3727      487.8702     
  33192000   248.15776     -419.18398     -336.07271     -419.13735      0              5830.6741      30.923         21.319344      32.753001      21592.68       5440.1682      7253.4769      4798.3773     -2147.8073     -1476.1984      1685.9913    
  33194000   245.76678     -415.98358     -333.67309     -415.9396       0              6389.1342      30.923         21.319344      32.557642      21463.888      8251.1544      4812.9399      6103.3083      1365.3738     -723.06247      218.95507    
  33196000   251.62373     -420.88361     -336.61154     -420.8864       0              3980.7394      30.923         21.319344      32.817162      21634.979      1895.2707      5306.3922      4740.5554      43.865519      869.67026      1610.8675    
  33198000   241.41882     -416.42732     -335.57301     -416.38172      0              4278.6121      30.923         21.319344      32.943044      21717.967      4960.3883      3805.405       4070.0431      577.27776     -1768.4668      11.677317    
  33200000   242.42734     -417.42152     -336.22944     -417.3797       0              8006.7015      30.923         21.319344      32.722533      21572.594      9085.8801      6936.6246      7997.5998     -125.61404     -490.12323     -155.76926    
  33202000   244.07168     -415.96918     -334.22639     -415.94613      0              7776.5375      30.923         21.319344      32.656422      21529.01       6680.6547      9723.264       6925.6938      722.77022     -200.01636      549.3647     
  33204000   238.89064     -415.84996     -335.84237     -415.80332      0              5964.935       30.923         21.319344      32.721566      21571.956      6122.0785      5628.934       6143.7926      1846.4371     -319.1546       1121.5239    
  33206000   243.60687     -421.07593     -339.48882     -421.05428      0              5824.2628      30.923         21.319344      32.733012      21579.503      6669.5606      5351.1087      5452.1191     -719.60956     -1650.9265      386.52826    
  33208000   241.94061     -418.36303     -337.33397     -418.31755      0              6779.8156      30.923         21.319344      32.612174      21499.839      5539.3845      5409.8217      9390.2405      461.22578      855.30272      790.6716     
  33210000   246.87337     -419.23062     -336.54951     -419.18528      0              4308.9622      30.923         21.319344      32.632264      21513.084      3624.369       4288.7674      5013.7501      1753.3704      1009.7127      1163.0189    
  33212000   245.29737     -416.15933     -334.00604     -416.12322      0              4221.1535      30.923         21.319344      32.72926       21577.029      3962.4529      3901.0738      4799.9337     -144.73337     -718.46339     -149.77447    
  33214000   254.06864     -418.11829     -333.02739     -418.09139      0              6253.9633      30.923         21.319344      32.558032      21464.145      5506.9933      6781.9692      6472.9273     -389.91041     -1397.5289      759.60501    
  33216000   239.27261     -417.24039     -337.10488     -417.19549      0              6045.5404      30.923         21.319344      32.68811       21549.9        6848.9832      4929.7133      6357.9247     -494.76758     -977.66276      960.50651    
  33218000   243.46744     -419.4151      -337.87468     -419.37739      0              6277.1291      30.923         21.319344      32.738984      21583.439      6459.6048      8073.9371      4297.8455      838.47174      1148.0344      1359.0109    
  33220000   247.81869     -416.27281     -333.2751      -416.22655      0              8131.7609      30.923         21.319344      32.542078      21453.628      7691.1951      9618.2339      7085.8537      575.90566      250.1924      -2186.3126    
  33222000   237.50887     -417.68414     -338.13932     -417.64173      0              5982.1426      30.923         21.319344      32.641263      21519.016      6314.098       4640.5284      6991.8015     -35.035688     -900.14441     -435.40907    
  33224000   251.63742     -416.66835     -332.3917      -416.62368      0              5864.6686      30.923         21.319344      32.688878      21550.407      5359.6172      5214.3255      7020.063       1062.2127     -1675.5507     -1528.7885    
  33226000   250.07409     -419.43704     -335.68397     -419.40095      0              6025.2964      30.923         21.319344      32.594823      21488.4        6265.6487      6722.6328      5087.6077      446.73028      187.54665      325.84841    
  33228000   251.39835     -418.26517     -334.06858     -418.2644       0              5812.2679      30.923         21.319344      32.517239      21437.252      5340.4293      6627.7025      5468.6718     -164.07865     -370.94243      1000.4672    
  33230000   256.7805      -419.86335     -333.86422     -419.84246      0              7575.2767      30.923         21.319344      32.594572      21488.235      9064.6672      6494.4282      7166.7346      62.898651     -814.77671     -216.10155    
  33232000   237.44613     -418.67241     -339.14861     -418.64914      0              5792.8457      30.923         21.319344      32.599157      21491.257      5035.5702      6880.0572      5462.9095      985.83484     -2975.0208     -380.35357    
  33234000   245.14731     -418.72461     -336.62158     -418.68174      0              7336.7567      30.923         21.319344      32.629759      21511.432      8215.9238      6547.779       7246.5673      736.52121     -1805.3698      136.46128    
  33236000   240.94403     -416.95348     -336.25818     -416.92688      0              6095.7577      30.923         21.319344      32.852429      21658.229      6186.5722      5130.1845      6970.5163     -910.66299     -1017.3119      35.53007     
  33238000   246.52891     -418.76125     -336.1955      -418.71845      0              5420.5009      30.923         21.319344      32.785334      21613.996      6657.717       4220.1104      5383.6753     -674.80586      50.229019      423.8496     
  33240000   239.26224     -417.60462     -337.47258     -417.57411      0              7180.0015      30.923         21.319344      32.65082       21525.317      7668.471       6471.151       7400.3826      1026.7513     -13.935557      765.00837    
  33242000   240.16381     -417.36892     -336.93493     -417.33203      0              7718.3852      30.923         21.319344      32.713572      21566.687      8181.6488      7507.8308      7465.676       244.09526      16.965104     -1286.2418    
  33244000   238.28694     -420.20123     -340.39583     -420.17526      0              6388.4714      30.923         21.319344      32.730165      21577.626      7140.0357      7843.2289      4182.1497      309.32244      587.20409     -785.28562    
  33246000   239.24342     -417.65459     -337.52884     -417.61563      0              7521.7126      30.923         21.319344      32.734059      21580.192      6192.6572      8429.7575      7942.723      -844.89783      602.75131      127.04477    
  33248000   247.62571     -419.3592      -336.42612     -419.3142       0              7952.2425      30.923         21.319344      32.688968      21550.466      6901.3087      10492.428      6462.9913      100.67732      1892.1162      590.59712    
  33250000   247.12649     -418.86642     -336.10054     -418.83348      0              6347.7344      30.923         21.319344      32.640377      21518.432      8146.2824      5679.4208      5217.4999      415.22624     -607.07299      450.91663    
  33252000   250.20583     -414.61518     -330.81799     -414.57178      0              7420.3651      30.923         21.319344      32.922795      21704.619      6779.4947      7997.6028      7483.9977      345.68056     -90.959963      233.85014    
  33254000   245.51428     -418.45195     -336.22602     -418.4317       0              6859.5841      30.923         21.319344      32.778185      21609.283      7623.2881      6915.1054      6040.3587     -191.65307      402.51641     -214.76547    
  33256000   242.43437     -418.56939     -337.37496     -418.55819      0              5059.8032      30.923         21.319344      32.677951      21543.203      6291.3789      4711.5537      4176.4769      1563.495       253.85142     -294.91991    
  33258000   238.69587     -416.69568     -336.75332     -416.66022      0              5492.373       30.923         21.319344      32.743757      21586.586      3833.8458      6715.7706      5927.5026      1222.3358      468.10115     -481.89327    
  33260000   244.50638     -417.30186     -335.41348     -417.26327      0              3696.483       30.923         21.319344      32.929613      21709.113      4345.1248      3999.0955      2745.2288     -274.90649      1756.363       1484.7969    
  33262000   252.73254     -416.62817     -331.98475     -416.58288      0              5426.6618      30.923         21.319344      32.998994      21754.853      5478.1531      5734.0174      5067.8149     -414.31511      131.09318     -290.52339    
  33264000   251.82797     -418.37426     -334.03379     -418.32861      0              6078.797       30.923         21.319344      32.734305      21580.355      5766.8621      7313.8836      5155.6451     -780.93919     -854.73252     -707.92357    
  33266000   246.58995     -417.96481     -335.37862     -417.92255      0              5264.4878      30.923         21.319344      32.758894      21596.565      6308.0746      6970.5184      2514.8705     -857.63363     -1111.7649      333.60374    
  33268000   246.64091     -417.30532     -334.70207     -417.27531      0              4646.988       30.923         21.319344      32.865622      21666.927      3232.7266      5393.0912      5315.1462     -274.14639     -631.3331       483.04164    
  33270000   244.33693     -415.97516     -334.14353     -415.94265      0              7735.1695      30.923         21.319344      32.684094      21547.253      7956.3698      7027.5718      8221.567      -1203.3474      623.92623      185.52994    
  33272000   249.93612     -418.13249     -334.42562     -418.08721      0              4474.3041      30.923         21.319344      32.765957      21601.222      3165.4513      5976.1804      4281.2805     -222.06963     -1381.0043     -270.12447    
  33274000   240.87293     -415.13125     -334.45977     -415.09023      0              6090.7851      30.923         21.319344      32.795022      21620.383      7020.7282      3770.7894      7480.8377      1766.6885     -387.17006      2232.2783    
  33276000   241.87694     -415.56426     -334.55652     -415.52566      0              6819.6736      30.923         21.319344      32.535532      21449.312      8569.5272      5630.7399      6258.7536     -53.428799     -2142.2869     -1413.8857    
  33278000   250.03552     -415.27309     -331.53293     -415.22696      0              5835.4433      30.923         21.319344      32.768781      21603.084      4374.2761      6163.9188      6968.1349     -49.700137     -2.7027551     -209.16977    
  33280000   246.49204     -415.99787     -333.44447     -415.95057      0              6587.0965      30.923         21.319344      32.539534      21451.951      7276.2476      5134.2391      7350.8027      932.73327      774.11152      1300.6209    
  33282000   239.10339     -416.13006     -336.05122     -416.1066       0              4817.7727      30.923         21.319344      32.654601      21527.81       5525.4682      5883.106       3044.7438     -1778.9595     -162.46913      148.661      
  33284000   251.70085     -415.31631     -331.01841     -415.29174      0              6070.8862      30.923         21.319344      32.55869       21464.579      4616.2477      5595.6581      8000.7528      1250.7954      1801.3033     -1305.1853    
  33286000   244.70191     -416.37291     -334.41905     -416.3521       0              6158.5384      30.923         21.319344      32.783337      21612.68       4940.6528      7543.4672      5991.4954      443.67893      22.892183     -1500.8387    
  33288000   246.46813     -416.06464     -333.51925     -416.02994      0              6535.6071      30.923         21.319344      32.849025      21655.985      5314.5395      5640.2161      8652.0656      910.84908      317.05796      2275.137     
  33290000   248.52539     -417.88075     -334.64636     -417.86995      0              6654.9027      30.923         21.319344      32.706649      21562.122      7554.6841      4373.5475      8036.4764      225.63202     -1170.6958      997.31898    
  33292000   250.51962     -416.62526     -332.72298     -416.57775      0              5100.18        30.923         21.319344      32.716456      21568.588      4978.6738      5093.0164      5228.8498      34.081255     -1621.3364     -705.63821    
  33294000   251.34546     -418.57846     -334.39959     -418.53392      0              4258.8986      30.923         21.319344      32.863786      21665.716      3886.1339      4443.3823      4447.1796      1580.6909      184.65098      642.89701    
  33296000   242.63541     -416.12045     -334.85869     -416.07502      0              4407.7757      30.923         21.319344      32.895295      21686.489      4255.0912      4274.5241      4693.7119      185.99715      1431.1739      1203.5499    
  33298000   255.2731      -418.13723     -332.64294     -418.09198      0              5100.0421      30.923         21.319344      32.806079      21627.673      5893.1019      4802.7524      4604.2721     -1189.8786     -185.71003      238.7485     
  33300000   241.91734     -413.95482     -332.93355     -413.9103       0              4614.0799      30.923         21.319344      32.749647      21590.469      4310.7482      3971.2865      5560.2049      430.27321      1096.5855      304.33148    
  33302000   245.80958     -417.38025     -335.05542     -417.34146      0              5529.3198      30.923         21.319344      32.774926      21607.135      4619.3479      6228.4577      5740.1539      648.35903     -411.50406     -48.573087    
ERROR on proc 0: Cannot open restart file restart.lmp.0: Permission denied (../write_restart.cpp:233)
Last command: run             ${nsteps_enhanced_coex_upto} upto
