LAMMPS (23 Jun 2022)
include procedure.lmp
echo both
include		in.partitions
variable        pid world 0
include		in.temp
variable	temperature equal 245
variable        tempDamp equal 0.100 # this is 0.1 ps
include		in.pressure
variable        pressure equal 6079.5
variable        pressureDamp equal 1.0 #this is 1ps

variable	barostat string	   tri
variable	direction string   z
variable	direction_x_bool equal 0
variable	direction_y_bool equal 0
variable	direction_z_bool equal 1

include		in.seed
variable        seed world 745823

units           metal
atom_style	full
box tilt large
read_restart 	restart.lmp.${pid}
read_restart 	restart.lmp.0
Reading restart file ...
  restart file = 23 Jun 2022, LAMMPS = 23 Jun 2022
  restoring atom style full from restart
  triclinic box = (0 0 -0.98524047) to (30.923 21.319344 31.707835) with tilt (-9.137482 1.1416103 -10.74445)
WARNING: Triclinic box skew is large (../domain.cpp:224)
  2 by 1 by 2 MPI processor grid
Summary of lammps deepmd module ...
  >>> Info of deepmd-kit:
  installed to:       /u/sigbjobo/software/DEEPMD_FROM_SOURCE/deepmd-kit/install
  source:             v2.1.3
  source branch:       master
  source commit:      5a32c49
  source commit at:   2022-07-01 09:52:58 +0800
  surpport model ver.:1.1 
  build float prec:   double
  build with tf inc:  /u/sigbjobo/software/DEEPMD_FROM_SOURCE/tensorflow/install/include;/u/sigbjobo/software/DEEPMD_FROM_SOURCE/tensorflow/install/include
  build with tf lib:  /u/sigbjobo/software/DEEPMD_FROM_SOURCE/tensorflow/install/lib/libtensorflow_cc.so;/u/sigbjobo/software/DEEPMD_FROM_SOURCE/tensorflow/install/lib/libtensorflow_framework.so
  set tf intra_op_parallelism_threads: 0
  set tf inter_op_parallelism_threads: 0
  >>> Info of lammps module:
  use deepmd-kit at:  /u/sigbjobo/software/DEEPMD_FROM_SOURCE/deepmd-kit/install
  source:             v2.1.3
  source branch:      master
  source commit:      5a32c49
  source commit at:   2022-07-01 09:52:58 +0800
  build float prec:   double
  build with tf inc:  /u/sigbjobo/software/DEEPMD_FROM_SOURCE/tensorflow/install/include;/u/sigbjobo/software/DEEPMD_FROM_SOURCE/tensorflow/install/include
  build with tf lib:  /u/sigbjobo/software/DEEPMD_FROM_SOURCE/tensorflow/install/lib/libtensorflow_cc.so;/u/sigbjobo/software/DEEPMD_FROM_SOURCE/tensorflow/install/lib/libtensorflow_framework.so
  restoring pair style deepmd from restart
  2592 atoms
Finding 1-2 1-3 1-4 neighbors ...
  special bond factors lj:    0        0        0       
  special bond factors coul:  0        0        0       
     0 = max # of 1-2 neighbors
     0 = max # of 1-3 neighbors
     0 = max # of 1-4 neighbors
     1 = max # of special neighbors
  special bonds CPU = 0.000 seconds
  read_restart CPU = 0.072 seconds
include 	in.setup
variable	out_freq equal 2000
variable	out_freq2 equal 2000

timestep        0.0005

neigh_modify    delay 7 every 1

include         in.deepmd
# This is deepMD model

# create groups ###
#group ox type 2
#group hy type 1

mass 2 15.999
mass 1 1.008

pair_style      deepmd ../graph.pb
pair_coeff      * *

bond_style      none
angle_style     none
dihedral_style  none
improper_style  none
neigh_modify exclude none


neighbor        2.0 bin
neigh_modify    every 50 delay 0 check no

thermo          ${out_freq}
thermo          2000
thermo_style 	custom step temp pe etotal epair emol press lx ly lz vol pxx pyy pzz pxy pxz pyz

restart 	${out_freq} restart.lmp.${pid} restart2.lmp.${pid}
restart 	2000 restart.lmp.${pid} restart2.lmp.${pid}
restart 	2000 restart.lmp.0 restart2.lmp.${pid}
restart 	2000 restart.lmp.0 restart2.lmp.0


timer           timeout 23:50:00 every 1000
New timer settings: style=normal  mode=nosync  timeout=23:50:00


# Set number of time steps
variable 	nsteps_wall		equal	 6000000
variable 	nsteps_enhanced_coex    equal	60000000

variable     nsteps_enhanced_coex_upto equal (${nsteps_wall}+${nsteps_enhanced_coex})
variable     nsteps_enhanced_coex_upto equal (6000000+${nsteps_enhanced_coex})
variable     nsteps_enhanced_coex_upto equal (6000000+60000000)


# Set temperature for first step
if "$(step) < 1  " then    "velocity 	all create ${temperature} ${seed} dist gaussian"


# Always run thermo and barostat


######################################
# Run simulation with wall potential #
######################################
if " $(step) < ${nsteps_wall} " then    "fix             3 all plumed plumedfile plumed.equil.dat outfile plumed.equil.out"   "fix             1 all nph ${direction} ${pressure} ${pressure} ${pressureDamp}"   "fix             2 all temp/csvr ${temperature} ${temperature} ${tempDamp} ${seed}"   "run             ${nsteps_wall} upto"
if " $(step) == ${nsteps_wall} " then    "unfix 3"   "unfix 1"   "unfix 2"


############################
# Run enhanced coesistence #
############################
if "$(step) == ${nsteps_wall}" then    "fix             3 all plumed plumedfile plumed.start.dat outfile plumed.out" else    "fix             3 all plumed plumedfile plumed.dat outfile plumed.out"
fix             3 all plumed plumedfile plumed.dat outfile plumed.out

if "$(step) < ${nsteps_enhanced_coex_upto} && $(step) >= ${nsteps_wall} " then    "include         in.dump"    "fix             1 all nph ${direction} ${pressure} ${pressure} ${pressureDamp}"   "fix             2 all temp/csvr ${temperature} ${temperature} ${tempDamp} ${seed}"   "run             ${nsteps_enhanced_coex_upto} upto"    "unfix 3"   "unfix 1"   "unfix 2"
include         in.dump
dump            myDump all atom ${out_freq2} dump.water.${pid}
dump            myDump all atom 2000 dump.water.${pid}
dump            myDump all atom 2000 dump.water.0
dump            myDump2 all dcd ${out_freq2} dump.${pid}.dcd
dump            myDump2 all dcd 2000 dump.${pid}.dcd
dump            myDump2 all dcd 2000 dump.0.dcd
dump_modify     myDump append yes
dump_modify     myDump2 append yes

fix             1 all nph ${direction} ${pressure} ${pressure} ${pressureDamp}
fix             1 all nph z ${pressure} ${pressure} ${pressureDamp}
fix             1 all nph z 6079.5 ${pressure} ${pressureDamp}
fix             1 all nph z 6079.5 6079.5 ${pressureDamp}
fix             1 all nph z 6079.5 6079.5 1
Resetting global fix info from restart file:
  fix style: nph, fix ID: 1
fix             2 all temp/csvr ${temperature} ${temperature} ${tempDamp} ${seed}
fix             2 all temp/csvr 245 ${temperature} ${tempDamp} ${seed}
fix             2 all temp/csvr 245 245 ${tempDamp} ${seed}
fix             2 all temp/csvr 245 245 0.1 ${seed}
fix             2 all temp/csvr 245 245 0.1 745823
Resetting global fix info from restart file:
  fix style: temp/csvr, fix ID: 2
run             ${nsteps_enhanced_coex_upto} upto
run             66000000 upto

CITE-CITE-CITE-CITE-CITE-CITE-CITE-CITE-CITE-CITE-CITE-CITE-CITE

Your simulation uses code contributions which should be cited:

- USER-DEEPMD package:

@article{Wang_ComputPhysCommun_2018_v228_p178,
  author = {Wang, Han and Zhang, Linfeng and Han, Jiequn and E, Weinan},
  doi = {10.1016/j.cpc.2018.03.016},
  url = {https://doi.org/10.1016/j.cpc.2018.03.016},
  year = 2018,
  month = {jul},
  publisher = {Elsevier {BV}},
  volume = 228,
  journal = {Comput. Phys. Commun.},
  title = {{DeePMD-kit: A deep learning package for many-body potential energy representation and molecular dynamics}},
  pages = {178--184}
}

CITE-CITE-CITE-CITE-CITE-CITE-CITE-CITE-CITE-CITE-CITE-CITE-CITE

Generated 0 of 1 mixed pair_coeff terms from geometric mixing rule
All restart file global fix info was re-assigned
Neighbor list info ...
  update every 50 steps, delay 0 steps, check no
  max neighbors/atom: 2000, page size: 100000
  master list distance cutoff = 8
  ghost atom cutoff = 8
  binsize = 4, bins = 11 9 9
  1 neighbor lists, perpetual/occasional/extra = 1 0 0
  (1) pair deepmd, perpetual
      attributes: full, newton on
      pair build: full/bin
      stencil: full/bin/3d
      bin: standard
Per MPI rank memory allocation (min/avg/max) = 7.307 | 7.308 | 7.309 Mbytes
   Step          Temp          PotEng         TotEng         E_pair         E_mol          Press            Lx             Ly             Lz           Volume          Pxx            Pyy            Pzz            Pxy            Pxz            Pyz      
  46122000   243.09534     -415.84974     -334.43394     -415.84974      0              5689.9349      30.923         21.319344      32.693076      21553.174      4836.7677      4716.7542      7516.2827      148.72864      1386.5284      845.40649    
  46124000   246.99398     -416.21464     -333.49314     -416.15128      0              5492.9547      30.923         21.319344      32.557514      21463.804      4241.1394      7018.097       5219.6276     -176.06776      111.59308     -769.21565    
  46126000   246.41852     -415.37411     -332.84534     -415.31999      0              6339.3545      30.923         21.319344      32.615478      21502.017      7350.117       5760.8625      5907.084      -421.16235     -504.96195     -1501.2899    
  46128000   251.01525     -417.30353     -333.23525     -417.24182      0              6818.4411      30.923         21.319344      32.701345      21558.625      7947.2954      7699.3504      4808.6775     -1031.242      -1020.7976     -2591.0399    
  46130000   248.07409     -416.36625     -333.283       -416.30307      0              6927.6426      30.923         21.319344      32.584956      21481.895      6916.2488      8189.5661      5677.1129      561.1569      -698.02657      759.38603    
  46132000   250.74094     -417.00877     -333.03236     -416.9541       0              6206.3002      30.923         21.319344      32.431099      21380.464      5253.0865      8059.249       5306.5651      968.97181     -88.011343     -1388.5992    
  46134000   244.8706      -418.95885     -336.94849     -418.90458      0              7931.9945      30.923         21.319344      32.570623      21472.447      8513.5914      8482.3564      6800.0358      2445.3795      180.41193      1393.0667    
  46136000   242.16091     -416.74395     -335.6411      -416.68937      0              6569.2501      30.923         21.319344      32.566693      21469.856      5113.1668      6780.3249      7814.2587     -11.987173     -203.08624     -287.18064    
  46138000   238.98133     -417.37733     -337.33937     -417.314        0              7915.7109      30.923         21.319344      32.456782      21397.396      7302.9729      6751.3618      9692.798      -705.41166      186.50919     -581.90023    
  46140000   247.55809     -416.97766     -334.06723     -416.92167      0              7159.7757      30.923         21.319344      32.520028      21439.091      7230.3291      5748.0416      8500.9565      2183.7801     -236.40474     -1056.2472    
  46142000   245.1628      -414.66748     -332.55926     -414.61778      0              6105.4737      30.923         21.319344      32.444812      21389.504      5724.9377      5733.6213      6857.862       209.17431      532.49133      1059.7126    
  46144000   242.06188     -418.12138     -337.0517      -418.06904      0              4854.4931      30.923         21.319344      32.619996      21504.996      6839.2006      3765.8233      3958.4552      1117.3991      3221.1868     -1211.1441    
  46146000   236.56366     -419.64649     -340.41824     -419.5916       0              5979.2309      30.923         21.319344      32.629411      21511.203      6890.897       5737.4879      5309.3077     -247.07757     -2074.1038     -328.3361     
  46148000   241.61863     -418.5614      -337.64017     -418.50685      0              5157.4928      30.923         21.319344      32.610199      21498.537      5074.5777      4494.0009      5903.8999     -260.88096      2077.2038      506.84567    
  46150000   239.73286     -417.68017     -337.39051     -417.62061      0              5851.9742      30.923         21.319344      32.710722      21564.807      6358.5726      6272.8559      4924.4942     -473.24575     -1313.7658     -824.47249    
  46152000   243.7708      -421.81488     -340.17286     -421.75241      0              4980.3578      30.923         21.319344      32.643643      21520.585      6118.3349      4212.3307      4610.4078     -2058.5955      553.64437     -226.98528    
  46154000   242.04777     -418.15817     -337.09322     -418.10429      0              4601.1079      30.923         21.319344      32.655667      21528.512      5289.9553      4658.3534      3855.0149     -72.152162      379.43323      1049.447     
  46156000   249.71063     -418.04069     -334.40935     -417.98354      0              5024.5923      30.923         21.319344      32.72096       21571.557      5830.4776      4710.1436      4533.1556     -1651.9831     -148.82814     -579.82424    
  46158000   239.42388     -417.22822     -337.04204     -417.19051      0              6295.5132      30.923         21.319344      32.630229      21511.742      7000.0544      6464.7215      5421.7636      1604.4867      1394.2341     -310.54104    
  46160000   238.5725      -418.4968      -338.59576     -418.45742      0              7752.2384      30.923         21.319344      32.512098      21433.863      7143.7837      6928.5124      9184.4192      1650.0214     -409.81312      1321.2262    
  46162000   250.80211     -418.74728     -334.75038     -418.69308      0              6185.0397      30.923         21.319344      32.737798      21582.658      6413.612       6950.5521      5190.9549      1942.1622     -536.76388      444.62476    
  46164000   248.95731     -418.91112     -335.53207     -418.86115      0              6707.9748      30.923         21.319344      32.676492      21542.241      7573.0646      6682.4444      5868.4152      906.63309     -1247.1284      234.98391    
  46166000   245.23715     -420.127       -337.99388     -420.07257      0              4713.8199      30.923         21.319344      32.446094      21390.35       5249.438       4586.9337      4305.0881     -593.42965     -662.24973     -436.38241    
  46168000   245.73534     -418.59785     -336.29788     -418.53769      0              6020.5719      30.923         21.319344      32.707785      21562.871      7476.6732      4007.7712      6577.2713      629.76435     -534.46002      141.63056    
  46170000   245.41179     -419.59624     -337.40463     -419.54381      0              7025.0367      30.923         21.319344      32.684313      21547.397      7124.0469      7245.9382      6705.1248     -580.74681      141.33477      182.48536    
  46172000   243.93863     -417.33235     -335.63412     -417.26975      0              5971.3479      30.923         21.319344      32.694704      21554.248      4902.1358      7144.1273      5867.7806      1852.5105     -377.9532      -742.56105    
  46174000   238.06514     -418.63858     -338.90746     -418.58088      0              5065.2126      30.923         21.319344      32.590656      21485.653      6015.2723      5009.1351      4171.2303      1137.8503      573.37109     -302.05277    
  46176000   243.65997     -420.22358     -338.61868     -420.16932      0              9026.0762      30.923         21.319344      32.45438       21395.812      8981.0009      8606.6535      9490.5742      547.25163     -430.60836      100.71396    
  46178000   247.77118     -419.99492     -337.01312     -419.93571      0              6092.8345      30.923         21.319344      32.58514       21482.017      7077.2039      5362.0208      5839.2788      947.91575     -664.73966      320.06437    
  46180000   245.96941     -415.39724     -333.01888     -415.34575      0              6920.311       30.923         21.319344      32.539115      21451.674      6833.5342      6820.9083      7106.4905      1102.292       1382.3993     -600.68188    
  46182000   241.24812     -418.3694      -337.57226     -418.3063       0              5062.502       30.923         21.319344      32.666315      21535.532      4731.7601      5467.7119      4988.0341     -61.31263       177.777       -811.50432    
  46184000   240.85345     -416.80116     -336.1362      -416.74659      0              6499.7865      30.923         21.319344      32.678116      21543.312      6582.4621      7504.4654      5412.4321      268.99248      1192.706      -29.894848    
  46186000   246.64384     -421.17835     -338.57411     -421.12459      0              7358.0905      30.923         21.319344      32.653966      21527.391      6801.4099      8103.6671      7169.1945      2434.6368     -1285.5287     -825.49424    
  46188000   245.39661     -419.62759     -337.44107     -419.58917      0              5786.0253      30.923         21.319344      32.715206      21567.764      7158.3288      5335.8874      4863.8597      409.90885      71.967614     -140.97917    
  46190000   252.37667     -420.11883     -335.59459     -420.06372      0              4915.8987      30.923         21.319344      32.619525      21504.685      4713.3862      4655.7315      5378.5784     -61.086137      525.08896      253.24866    
  46192000   243.68984     -417.99588     -336.38098     -417.93891      0              5666.3935      30.923         21.319344      32.565335      21468.96       5586.7868      6030.8973      5381.4964     -151.54141     -629.58139     -1149.2769    
  46194000   242.26393     -418.01253     -336.87518     -417.95786      0              6247.0783      30.923         21.319344      32.505681      21429.633      5314.648       6148.4116      7278.1753      1203.9704     -1059.0426      223.90327    
  46196000   247.5287      -417.17728     -334.27669     -417.12052      0              4295.2219      30.923         21.319344      32.759057      21596.673      6147.6914      5976.5134      761.46094     -509.90619     -1031.6997     -930.74851    
  46198000   242.05179     -418.0683      -337.002       -418.00929      0              6303.2274      30.923         21.319344      32.603807      21494.323      5406.4287      8592.5505      4910.7031      1610.9015     -547.17799      284.21179    
  46200000   242.23083     -419.23711     -338.11085     -419.19372      0              6810.5072      30.923         21.319344      32.547816      21457.411      6532.0331      6597.0167      7302.472       1928.2567     -89.281311     -982.49871    
  46202000   240.70009     -418.74194     -338.12834     -418.68785      0              5244.1755      30.923         21.319344      32.79178       21618.245      4838.6334      7288.0664      3605.8266     -427.84547     -1632.2604     -1483.7362    
  46204000   243.60242     -419.96136     -338.37573     -419.90735      0              2800.4913      30.923         21.319344      32.746214      21588.206      4274.031       1692.662       2434.781       1423.4096     -2022.3691      1072.5911    
  46206000   249.29117     -418.59299     -335.10213     -418.54088      0              6651.7917      30.923         21.319344      32.719517      21570.606      6327.7769      6427.3233      7200.2749     -1728.4876     -652.38114      326.22664    
  46208000   244.62417     -416.78024     -334.85241     -416.72097      0              5817.8395      30.923         21.319344      32.738524      21583.136      4967.2425      6118.2521      6368.0237      895.67976      601.75646      855.58866    
  46210000   242.74753     -416.99223     -335.69292     -416.92902      0              3938.6904      30.923         21.319344      32.827201      21641.598      4681.0046      2826.0602      4309.0063     -454.91403      689.21872      508.10033    
  46212000   245.62118     -416.06963     -333.8079      -416.013        0              4703.4845      30.923         21.319344      32.901911      21690.85       5551.1114      3784.5711      4774.771       310.95857      1773.5888     -675.07293    
  46214000   247.73293     -417.37713     -334.40815     -417.32388      0              5474.4965      30.923         21.319344      32.771069      21604.592      4847.0361      5575.1222      6001.3312      1979.1192     -803.32369      69.548296    
  46216000   246.66317     -418.42186     -335.81115     -418.36772      0              4421.9652      30.923         21.319344      32.656373      21528.978      4700.9982      8129.4652      435.43228      100.30498      368.49073     -2246.8417    
  46218000   239.15409     -420.27251     -340.17669     -420.24246      0              6309.486       30.923         21.319344      32.684485      21547.511      6404.3215      4984.0737      7540.0628     -2.587414      -402.15266      490.42971    
  46220000   249.1039      -418.82516     -335.39702     -418.76191      0              7399.5468      30.923         21.319344      32.50408       21428.577      7780.3747      7397.1969      7021.0688     -211.86681      1210.7591     -1802.6979    
  46222000   245.26899     -418.65198     -336.5082      -418.59876      0              6614.4632      30.923         21.319344      32.611245      21499.227      6212.596       6853.6789      6777.1149     -439.97793      311.45669      279.35314    
  46224000   242.94527     -416.26145     -334.89591     -416.22556      0              6453.5122      30.923         21.319344      32.527778      21444.2        6272.1312      4990.0518      8098.3538     -38.625484     -153.21138     -1748.5947    
  46226000   238.93433     -418.81244     -338.79022     -418.75941      0              3826.2138      30.923         21.319344      32.654837      21527.965      3762.1295      4305.1416      3411.3705      1709.8668      2315.9139     -250.66436    
  46228000   248.39315     -416.8967      -333.7066      -416.84766      0              6783.1995      30.923         21.319344      32.600657      21492.247      9119.5883      4273.5106      6956.4995     -869.96695     -301.55514      361.05802    
  46230000   241.89597     -414.65907     -333.64496     -414.61049      0              6576.7664      30.923         21.319344      32.59147       21486.19       6702.2975      5659.6943      7368.3075      1087.188       1261.8169     -110.53744    
  46232000   242.7607      -418.73805     -337.43433     -418.68434      0              5434.4537      30.923         21.319344      32.475877      21409.984      4217.5164      5373.7379      6712.1068      309.21257     -409.62144      428.97093    
  46234000   247.23896     -418.1215      -335.31795     -418.0807       0              7482.652       30.923         21.319344      32.555277      21462.329      7781.6559      6012.8034      8653.4967      656.71843      342.70514     -411.61396    
  46236000   244.08226     -417.63368     -335.88735     -417.57191      0              6201.8021      30.923         21.319344      32.838482      21649.034      5538.322       5360.4094      7706.6749     -1151.122       1924.4933     -401.41216    
  46238000   250.12071     -416.23366     -332.46498     -416.17134      0              5450.3221      30.923         21.319344      32.772703      21605.669      5485.3105      6666.3983      4199.2575      492.23013      918.87252      1031.9029    
  46240000   241.80541     -416.81687     -335.83308     -416.76038      0              6679.2601      30.923         21.319344      32.584801      21481.793      7005.7799      5915.3269      7116.6734      1495.0812     -337.81684      738.53832    
  46242000   239.89691     -416.37013     -336.02553     -416.30692      0              5860.4749      30.923         21.319344      32.694231      21553.936      4945.346       6047.9735      6588.1053      388.11242     -394.15732      782.78455    
  46244000   243.13105     -419.06112     -337.63336     -419.03556      0              7346.243       30.923         21.319344      32.662966      21533.324      6501.9629      7483.7198      8053.0462      839.32602      651.39966      1651.6467    
  46246000   242.15301     -418.74051     -337.64031     -418.68831      0              2579.2429      30.923         21.319344      32.69143       21552.089      618.28173      2675.1654      4444.2817      497.7956      -1094.7291     -358.07363    
  46248000   247.72904     -420.85287     -337.88518     -420.79064      0              6077.2357      30.923         21.319344      32.648999      21524.116      5436.3328      5909.3465      6886.0277      884.82492     -801.04145      722.74459    
  46250000   242.09927     -420.58996     -339.50776     -420.5571       0              5766.6314      30.923         21.319344      32.506512      21430.18       5516.3389      5513.4708      6270.0845      2292.8486     -2619.9926      1539.6375    
  46252000   241.71714     -417.80843     -336.85421     -417.78739      0              7370.2151      30.923         21.319344      32.52093       21439.686      7097.3216      5995.2051      9018.1187     -717.8521       409.37389      386.7699     
  46254000   253.23485     -418.17197     -333.36032     -418.12386      0              5624.9755      30.923         21.319344      32.629194      21511.06       5353.8284      5436.433       6084.6651     -128.64711      463.87818      845.19233    
  46256000   237.44879     -419.42645     -339.90175     -419.39763      0              5945.9604      30.923         21.319344      32.721239      21571.741      6023.7199      6436.894       5377.2672      1467.1494      859.27569      524.65352    
  46258000   239.27844     -419.30995     -339.17248     -419.28826      0              7402.2382      30.923         21.319344      32.637889      21516.792      8770.8737      5198.1324      8237.7086      980.45794      85.472731     -413.92502    
  46260000   248.87456     -417.65904     -334.3077      -417.61381      0              6080.6242      30.923         21.319344      32.563571      21467.797      5418.7312      6688.2342      6134.9073      637.58863      905.37968      1311.7998    
  46262000   247.07311     -417.6417      -334.8937      -417.60882      0              6597.3275      30.923         21.319344      32.561352      21466.334      7567.9316      5873.5729      6350.478      -1290.9434     -136.30942     -169.65218    
  46264000   248.26369     -416.82007     -333.67332     -416.76528      0              6064.5736      30.923         21.319344      32.766407      21601.518      3326.3994      6540.9269      8326.3945      59.631262     -625.80769      2303.8372    
  46266000   245.05392     -419.85851     -337.78676     -419.81039      0              4262.3801      30.923         21.319344      32.744187      21586.87       3584.9333      3945.374       5256.8331      51.367493     -215.02636     -96.123002    
  46268000   247.07847     -419.30252     -336.55272     -419.27497      0              5071.768       30.923         21.319344      32.814977      21633.538      4595.6872      3003.8325      7615.7843     -675.83323     -349.06171      1719.3222    
  46270000   244.5523      -420.03112     -338.12736     -419.98784      0              5250.4291      30.923         21.319344      32.860043      21663.249      4270.0682      6849.2251      4631.994      -275.37429      371.70048     -901.95646    
  46272000   243.89772     -417.17847     -335.49394     -417.12936      0              4707.6198      30.923         21.319344      32.849259      21656.139      4473.0595      5916.3518      3733.4481     -387.41384      872.09623     -121.07568    
  46274000   244.9895      -418.92913     -336.87896     -418.87353      0              5890.5811      30.923         21.319344      32.789036      21616.437      7050.0388      5815.6235      4806.0809      816.83979     -1349.1124     -1956.2912    
  46276000   247.09579     -418.72567     -335.97007     -418.67026      0              3997.5075      30.923         21.319344      32.71082       21564.872      4356.1779      4432.3427      3204.0017      878.27871     -891.95503      1784.0424    
  46278000   246.45689     -419.84511     -337.30348     -419.78382      0              6778.4866      30.923         21.319344      32.622019      21506.33       5404.9334      6417.3576      8513.1689      504.53913      352.00855      1091.9343    
  46280000   241.85475     -418.25297     -337.25267     -418.19906      0              6188.2248      30.923         21.319344      32.624203      21507.769      5249.5206      6930.5111      6384.6429      347.1301      -480.36982      544.90526    
  46282000   247.34018     -418.77415     -335.9367      -418.75603      0              7877.2486      30.923         21.319344      32.696441      21555.393      7625.2488      6656.2986      9350.1984     -1491.1226      1301.7256     -379.88878    
  46284000   241.54478     -417.59199     -336.69549     -417.53568      0              4566.149       30.923         21.319344      32.651119      21525.514      2946.0159      5885.3557      4867.0755     -1136.1114     -124.28213     -131.6336     
  46286000   238.68661     -418.08864     -338.14938     -418.03356      0              5578.7605      30.923         21.319344      32.726505      21575.213      5623.5813      5876.4977      5236.2025     -741.99003      638.38639      401.89928    
  46288000   250.09436     -416.94982     -333.18996     -416.89233      0              2573.4718      30.923         21.319344      32.736783      21581.988      3403.204       1318.5951      2998.6162      813.71996     -917.19419     -1230.6234    
  46290000   240.72217     -418.78801     -338.16702     -418.73606      0              3961.0283      30.923         21.319344      32.637874      21516.782      4145.8973      5116.7217      2620.466       75.450605      497.97929      437.62677    
  46292000   250.66035     -418.29135     -334.34193     -418.25489      0              6461.9426      30.923         21.319344      32.570093      21472.097      6053.8132      5733.5604      7598.4542      404.57243      2245.1443     -446.67543    
  46294000   248.65065     -417.8397      -334.56336     -417.80549      0              4358.3339      30.923         21.319344      32.507469      21430.811      3282.8181      5918.1946      3873.9891      1708.6825      1044.2297      140.88461    
  46296000   247.19791     -416.68932     -333.89952     -416.63462      0              6348.1507      30.923         21.319344      32.459562      21399.228      4967.8189      9119.8415      4956.7917      1161.2877      806.72607      291.21469    
  46298000   245.11911     -417.01147     -334.91788     -416.96099      0              7082.6095      30.923         21.319344      32.45558       21396.603      6772.459       8112.1242      6363.2451      1225.4777     -1301.3999      2364.5015    
  46300000   251.82513     -416.49832     -332.1588      -416.44311      0              6140.3204      30.923         21.319344      32.64316       21520.267      7155.8779      6298.1797      4966.9037     -1125.4869      170.74779      637.66912    
  46302000   245.57679     -418.66919     -336.42233     -418.63212      0              9339.9823      30.923         21.319344      32.462096      21400.899      11118.707      7587.4728      9313.7671     -825.23508     -268.14647      281.87189    
  46304000   250.84463     -418.69614     -334.685       -418.66167      0              6596.7139      30.923         21.319344      32.482524      21414.366      8046.2327      6629.2636      5114.6456      684.66005     -96.357838      354.33528    
  46306000   242.94033     -417.37819     -336.01431     -417.31526      0              7419.6806      30.923         21.319344      32.79636       21621.265      8367.8757      7602.933       6288.2332      1062.9842      846.70562     -761.99349    
  46308000   245.66688     -418.13398     -335.85694     -418.07994      0              4668.4082      30.923         21.319344      32.81791       21635.472      5836.1796      3001.8084      5167.2366     -208.68587      1256.2652     -41.403351    
  46310000   243.95535     -418.90437     -337.20054     -418.8645       0              7626.8244      30.923         21.319344      32.635124      21514.969      6458.5728      6874.5573      9547.343       1160.7884      382.75543     -555.02248    
  46312000   244.97275     -422.43551     -340.39094     -422.40871      0              6069.5702      30.923         21.319344      32.703253      21559.883      6450.9784      5804.2864      5953.4459      862.50111      179.07429     -808.45343    
  46314000   246.30705     -421.29811     -338.80667     -421.26976      0              4228.7065      30.923         21.319344      32.832017      21644.772      5284.1609      3784.615       3617.3435      1232.5051     -1301.7583     -619.01635    
  46316000   250.72574     -419.59756     -335.62624     -419.57048      0              7549.0423      30.923         21.319344      32.667487      21536.304      7430.5979      10198.805      5017.7239      133.80189      1100.8982      472.47067    
  46318000   243.50174     -420.28525     -338.73334     -420.24201      0              6464.3382      30.923         21.319344      32.552486      21460.489      5232.982       6773.6132      7386.4195     -280.94049      1510.5863      813.08664    
  46320000   247.68329     -418.82502     -335.87266     -418.76959      0              5624.9934      30.923         21.319344      32.660992      21532.023      5689.2276      5185.6125      6000.1402     -1093.411       299.9002      -1536.2033    
  46322000   239.38729     -419.10028     -338.92635     -419.08933      0              5615.07        30.923         21.319344      32.765317      21600.8        4496.2709      5511.749       6837.1903      502.13726      121.71393      893.53207    
  46324000   249.76366     -419.85394     -336.20483     -419.82026      0              5937.7759      30.923         21.319344      32.759631      21597.051      4255.6904      6913.4691      6644.1681     -1621.8584      441.72044     -1441.4236    
  46326000   246.08358     -420.27845     -337.86185     -420.25284      0              6788.4455      30.923         21.319344      32.689786      21551.005      5752.6723      6752.175       7860.4892      157.78239      1014.1551      601.94948    
  46328000   240.67908     -418.96473     -338.35817     -418.94001      0              5994.4111      30.923         21.319344      32.770066      21603.93       6543.663       6456.2878      4983.2826     -114.90489      982.08686     -476.33535    
  46330000   243.5794      -422.12125     -340.54333     -422.08933      0              5400.2879      30.923         21.319344      32.797943      21622.309      7368.9956      4940.2046      3891.6635      742.15015      270.26167     -347.27249    
  46332000   245.92919     -419.09201     -336.72711     -419.06107      0              6306.1573      30.923         21.319344      32.697902      21556.356      7373.547       5813.602       5731.3229      1524.582      -799.84564     -1350.0856    
  46334000   245.90362     -419.46704     -337.11071     -419.41507      0              9217.1669      30.923         21.319344      32.48496       21415.972      7606.4522      10870.778      9174.2708      439.60088     -854.56703      528.96817    
  46336000   242.03243     -419.02525     -337.96543     -418.97969      0              6150.5564      30.923         21.319344      32.733481      21579.812      5808.7379      6005.084       6637.8475     -446.5052       624.96711     -1035.5614    
  46338000   246.14945     -419.40418     -336.96552     -419.34904      0              4191.74        30.923         21.319344      32.791848      21618.291      3664.2842      4187.0982      4723.8376     -2099.8263      1033.9024     -906.74231    
  46340000   247.05804     -419.39291     -336.64995     -419.33807      0              5829.125       30.923         21.319344      32.741205      21584.904      4474.7696      6464.7944      6547.811       2089.9717      377.71055     -374.61923    
  46342000   244.87369     -417.9754      -335.96401     -417.93762      0              5861.3922      30.923         21.319344      32.756881      21595.238      4241.334       7329.5757      6013.2668     -602.11637      829.62202     -111.33865    
  46344000   239.39741     -415.90131     -335.724       -415.84627      0              4615.9353      30.923         21.319344      32.895208      21686.431      5721.1887      4250.7613      3875.8559      531.1568       650.53644      2504.8046    
  46346000   242.17601     -421.44905     -340.34115     -421.401        0              7673.5572      30.923         21.319344      32.546257      21456.383      5951.204       8282.9864      8786.4814     -69.763966     -1423.5541     -962.43196    
  46348000   249.54574     -420.09228     -336.51615     -420.06148      0              4921.5411      30.923         21.319344      32.603021      21493.805      5736.5067      2567.3714      6460.7453      581.13058     -195.54183     -689.7553     
  46350000   244.13241     -416.69889     -334.93576     -416.65626      0              6835.4739      30.923         21.319344      32.520588      21439.46       5925.7724      6253.3831      8327.2661     -657.97197     -37.071836     -486.45624    
  46352000   243.69606     -420.88983     -339.27284     -420.85289      0              5659.1516      30.923         21.319344      32.709139      21563.764      3438.292       6871.0672      6668.0956      1396.8337     -1067.4686      535.23854    
  46354000   241.50864     -419.29784     -338.41345     -419.25769      0              7453.309       30.923         21.319344      32.604931      21495.064      5113.922       10612.323      6633.6821     -1130.4397      79.744461     -2502.2771    
  46356000   239.02363     -416.11424     -336.06211     -416.05155      0              5358.214       30.923         21.319344      32.805485      21627.281      6470.594       6446.4757      3157.5724      729.5736      -231.62345      63.260104    
  46358000   248.95994     -420.69443     -337.3145      -420.64105      0              6521.714       30.923         21.319344      32.65743       21529.674      7126.8635      5914.1049      6524.1737      929.73862     -489.7615      -129.06954    
  46360000   246.50591     -420.28188     -337.72384     -420.24715      0              4213.911       30.923         21.319344      32.65718       21529.51       4321.1317      5166.723       3153.8782     -144.56144      268.23644     -64.299724    
  46362000   244.62224     -420.63146     -338.70428     -420.6038       0              4999.4534      30.923         21.319344      32.755744      21594.489      3118.0558      6469.0334      5411.2711     -922.24893      167.26774      510.17453    
  46364000   247.01724     -418.27588     -335.54659     -418.24166      0              5699.8159      30.923         21.319344      32.760127      21597.379      5485.3992      7951.9485      3662.1         1379.8327     -656.9487      -949.39975    
  46366000   246.48485     -419.45241     -336.90142     -419.41638      0              7032.1658      30.923         21.319344      32.536744      21450.111      8222.8489      5344.4797      7529.1687      7.7112904     -529.54339     -89.16355     
  46368000   241.87668     -419.90204     -338.89439     -419.8756       0              6005.9975      30.923         21.319344      32.522818      21440.93       5786.8093      7298.8745      4932.3088     -1800.1677      692.97937     -569.15998    
  46370000   241.4195      -418.18399     -337.32946     -418.16448      0              4620.0751      30.923         21.319344      32.567226      21470.207      3664.8033      5530.9325      4664.4894     -414.05896      438.51628     -236.10757    
  46372000   243.77829     -422.16656     -340.52203     -422.14546      0              6124.4601      30.923         21.319344      32.477548      21411.086      4659.6346      7355.0195      6358.7264      1091.8265      126.60716     -1247.5086    
  46374000   246.30903     -419.91376     -337.42166     -419.90388      0              7485.4291      30.923         21.319344      32.477366      21410.966      6620.1452      9007.3915      6828.7508      1569.7735      5.7795355     -801.10567    
  46376000   243.57944     -419.81166     -338.23373     -419.76532      0              7584.748       30.923         21.319344      32.506867      21430.414      9164.8869      8764.627       4824.7301      133.84319     -138.48133     -1301.6769    
  46378000   241.77533     -416.71397     -335.74026     -416.70029      0              7107.7301      30.923         21.319344      32.370998      21340.842      7622.4659      8409.7171      5291.0072      792.53368      161.21457      953.0893     
  46380000   246.33696     -417.80475     -335.30329     -417.7736       0              5413.3826      30.923         21.319344      32.305215      21297.474      5782.1383      5605.5477      4852.4618      750.36382     -2528.1514     -850.81423    
  46382000   247.39527     -417.93657     -335.08067     -417.91616      0              9195.7272      30.923         21.319344      32.407441      21364.867      10209.169      7192.9014      10185.111     -332.59012     -238.57739     -561.57265    
  46384000   246.28296     -417.52125     -335.03788     -417.48139      0              5749.9576      30.923         21.319344      32.369291      21339.717      5808.9837      6401.9789      5038.9103     -1084.5028     -334.75186      602.76587    
  46386000   235.30703     -417.91251     -339.10512     -417.89548      0              6763.9796      30.923         21.319344      32.435237      21383.192      5956.9853      6697.7233      7637.2302      1056.6484     -469.48665      1153.0749    
  46388000   255.03437     -418.71588     -333.30155     -418.68007      0              5548.455       30.923         21.319344      32.459067      21398.902      6747.2948      6476.0573      3422.013       1065.7391     -1008.7822     -1437.0785    
  46390000   247.06465     -416.99381     -334.24864     -416.94642      0              6678.9403      30.923         21.319344      32.471152      21406.869      6384.8325      5480.0464      8171.9419      844.55748      384.21842      249.9122     
  46392000   247.73864     -416.62561     -333.65471     -416.56369      0              5074.0312      30.923         21.319344      32.460821      21400.058      5596.2347      4985.8532      4640.0056      1022.0744     -1671.2547     -492.63776    
  46394000   244.96374     -420.48062     -338.43907     -420.41771      0              7450.455       30.923         21.319344      32.513882      21435.039      7217.127       8805.0357      6329.2024     -636.99088     -501.33719      1015.9767    
  46396000   247.57719     -419.25168     -336.33485     -419.19921      0              6662.6865      30.923         21.319344      32.573462      21474.318      5381.3939      7767.2077      6839.458      -1212.3919      827.47471     -1828.4937    
  46398000   242.58945     -417.52126     -336.27489     -417.46134      0              5005.1722      30.923         21.319344      32.627723      21510.09       6448.2496      5076.7022      3490.5648     -1049.6366      116.57588      1001.9024    
  46400000   246.95188     -418.38098     -335.67357     -418.32643      0              7541.257       30.923         21.319344      32.595993      21489.172      6560.2287      7979.489       8084.0533     -754.9797      -591.23885     -964.32553    
  46402000   246.22498     -417.89933     -335.43537     -417.83662      0              6683.7116      30.923         21.319344      32.544193      21455.022      5529.268       8451.4683      6070.3986     -458.29133     -590.51323     -395.35687    
  46404000   250.60693     -418.98461     -335.05308     -418.93158      0              5880.7611      30.923         21.319344      32.513137      21434.548      5165.4783      7038.8965      5437.9086      1232.7504      473.5924      -1213.7293    
  46406000   242.98623     -417.09271     -335.71345     -417.04062      0              4352.4764      30.923         21.319344      32.534222      21448.448      5354.9174      2839.0317      4863.4799      729.18207     -1455.8833      365.25714    
  46408000   247.87896     -420.66887     -337.65097     -420.61703      0              5707.3425      30.923         21.319344      32.506382      21430.095      7388.333       3781.438       5952.2565     -984.28142     -842.90603      628.5012     
  46410000   239.7379      -418.85028     -338.55894     -418.81427      0              8177.2967      30.923         21.319344      32.479929      21412.655      8474.5246      8256.0711      7801.2944      833.774        595.79593     -1320.1683    
  46412000   246.08471     -420.69827     -338.28129     -420.65968      0              5315.8893      30.923         21.319344      32.502522      21427.55       3923.8288      5388.2228      6635.6164      894.74036      915.0489      -708.3113     
  46414000   245.51384     -421.13143     -338.90565     -421.08287      0              5313.4285      30.923         21.319344      32.673851      21540.5        4224.0137      6306.6986      5409.573       1033.7615      354.40812     -284.01108    
  46416000   241.88972     -417.52365     -336.51162     -417.50778      0              5662.7542      30.923         21.319344      32.726914      21575.483      7095.1353      4186.5896      5706.5375      303.58284     -623.08056     -240.35638    
  46418000   243.38491     -416.84583     -335.33305     -416.82114      0              7476.6017      30.923         21.319344      32.560221      21465.589      8058.5216      6975.0967      7396.1867      140.68328      1307.0006     -1754.8919    
  46420000   239.77258     -417.54124     -337.23828     -417.50462      0              5540.8204      30.923         21.319344      32.635856      21515.452      4158.3694      6991.5015      5472.5902      486.07712     -45.467635      2123.376     
  46422000   244.66829     -418.2299      -336.2873      -418.16687      0              5912.6066      30.923         21.319344      32.559984      21465.432      6637.5634      5724.0568      5376.1996     -1485.5727     -253.28291     -71.048067    
  46424000   242.83435     -416.89971     -335.57132     -416.846        0              6367.6757      30.923         21.319344      32.510103      21432.548      8873.9972      4841.277       5387.7529      198.26571     -1082.2425      966.09209    
  46426000   245.37496     -420.0708      -337.89153     -420.02429      0              7107.291       30.923         21.319344      32.416417      21370.785      5584.4253      9066.8176      6670.63       -1140.8937      1203.7148      544.41889    
  46428000   243.46223     -417.14356     -335.60488     -417.08612      0              7566.4604      30.923         21.319344      32.451468      21393.892      5383.1676      8601.8561      8714.3576      999.84895     -1081.0622      470.65485    
  46430000   244.4465      -417.59128     -335.72296     -417.52835      0              6197.5316      30.923         21.319344      32.374626      21343.233      7038.2279      4964.2504      6590.1165      191.80085     -625.09362      1055.0082    
  46432000   243.00078     -419.77639     -338.39226     -419.72509      0              7007.5873      30.923         21.319344      32.49795       21424.536      6447.0121      5840.1424      8735.6075      1704.3768     -258.78004      867.437      
  46434000   249.66156     -417.02167     -333.40676     -416.95991      0              5236.2435      30.923         21.319344      32.600779      21492.327      5758.612       5435.2146      4514.9038      978.81229     -1262.214      -428.18809    
  46436000   249.90631     -420.54044     -336.84356     -420.48604      0              5282.147       30.923         21.319344      32.407144      21364.671      8045.1734      3667.0806      4134.1871     -876.31043     -692.64541      575.49871    
  46438000   249.13026     -418.90234     -335.46537     -418.84831      0              5985.2641      30.923         21.319344      32.50067       21426.329      6251.5781      7587.042       4117.1722      54.413461      321.53605     -349.84564    
  46440000   239.97807     -419.98608     -339.61429     -419.92318      0              6456.5609      30.923         21.319344      32.579848      21478.528      6944.9277      6320.1291      6104.6259     -1021.6366     -1050.1421     -235.59092    
  46442000   245.31171     -417.68924     -335.53115     -417.6362       0              5240.2485      30.923         21.319344      32.541285      21453.105      7149.6883      4370.5659      4200.4912     -475.98091      640.37885     -988.74205    
  46444000   241.70256     -415.90657     -334.95724     -415.84373      0              5983.2552      30.923         21.319344      32.329551      21313.518      6338.388       6390.6257      5220.7521      695.99023     -1206.9192      439.15396    
  46446000   240.28057     -416.10139     -335.62829     -416.03856      0              7710.7308      30.923         21.319344      32.289929      21287.396      7428.9778      7176.8019      8526.4129      864.365        546.34247     -1955.6539    
  46448000   250.47984     -421.57807     -337.6891      -421.5183       0              5765.4799      30.923         21.319344      32.364145      21336.324      6215.9145      5186.4988      5894.0265     -182.88217      653.4015       1358.3772    
  46450000   242.63946     -418.78514     -337.52202     -418.72848      0              7043.8393      30.923         21.319344      32.351578      21328.039      6949.4464      5519.9603      8662.1113      1906.9177     -130.30644     -669.47504    
  46452000   244.50608     -421.4259      -339.53762     -421.36817      0              7613.6616      30.923         21.319344      32.356577      21331.335      6371.994       8180.589       8288.4017      491.57957     -1206.3211     -1192.8536    
  46454000   242.09626     -416.01701     -334.93582     -415.96295      0              6960.4129      30.923         21.319344      32.38343       21349.038      9278.8356      6817.4766      4784.9264      705.38498      457.28202     -1177.5582    
  46456000   247.89619     -416.61081     -333.58714     -416.54788      0              5434.6769      30.923         21.319344      32.343132      21322.471      6458.012       4558.4111      5287.6074      739.80352     -766.99735     -332.91306    
  46458000   237.43554     -422.10865     -342.58839     -422.05725      0              5562.4857      30.923         21.319344      32.360487      21333.912      5108.7991      5802.8704      5775.7874     -291.84584      189.04844     -2529.2026    
  46460000   245.17071     -417.9044      -335.79353     -417.85199      0              7881.6819      30.923         21.319344      32.368715      21339.337      7148.4655      7175.4581      9321.1222      680.49788     -1038.3294      80.664001    
  46462000   238.34797     -418.12776     -338.30191     -418.07925      0              7827.23        30.923         21.319344      32.218932      21240.591      6495.179       7057.2069      9929.304       935.25709     -1751.9037     -978.81317    
  46464000   247.7615      -418.26227     -335.28372     -418.2002       0              4798.1071      30.923         21.319344      32.521897      21440.323      4724.2412      6347.1064      3322.9737      767.7827      -861.64365     -1226.2358    
  46466000   252.76326     -418.52271     -333.869       -418.46912      0              5803.8871      30.923         21.319344      32.558081      21464.178      5142.8544      5246.7185      7022.0883      502.53576     -961.2501       950.95916    
  46468000   252.11031     -418.68282     -334.24779     -418.62801      0              4399.7837      30.923         21.319344      32.55462       21461.896      4290.4773      5027.8975      3880.9762      935.83854      1528.7782      365.34311    
  46470000   247.19912     -419.38871     -336.59851     -419.33403      0              7017.2338      30.923         21.319344      32.550369      21459.094      7567.0615      7958.2054      5526.4346     -1525.6385     -94.276231      476.51861    
  46472000   246.08614     -416.15272     -333.73527     -416.09076      0              6275.1416      30.923         21.319344      32.558618      21464.532      5908.1619      7574.3447      5342.9183      361.59903      1070.4828     -771.64294    
  46474000   243.75059     -419.29486     -337.65961     -419.23851      0              4459.0837      30.923         21.319344      32.498392      21424.827      4645.6652      5002.2606      3729.3254     -537.08576      413.49284     -1112.9971    
  46476000   244.47735     -419.85091     -337.97226     -419.79467      0              6318.4747      30.923         21.319344      32.413344      21368.759      6752.8322      6381.8335      5820.7585     -733.37535     -938.21454     -947.01077    
  46478000   241.0268      -420.73764     -340.01462     -420.67571      0              7896.1006      30.923         21.319344      32.38002       21346.79       9032.0865      7149.1252      7507.0901     -639.02298     -1847.8882     -1868.5782    
  46480000   243.59012     -420.10963     -338.52812     -420.06039      0              5386.5552      30.923         21.319344      32.709902      21564.267      6686.116       3851.9879      5621.5617      791.29429     -1099.319       556.37351    
  46482000   240.8425      -416.73377     -336.07248     -416.67643      0              5440.7632      30.923         21.319344      32.708757      21563.512      8157.0785      4344.8663      3820.3449      1374.3167     -132.54771      1853.6052    
  46484000   242.42307     -418.37181     -337.18117     -418.3176       0              3747.6347      30.923         21.319344      32.604867      21495.022      5806.1159      3644.1769      1792.6112      1065.1285      506.24374      1403.6535    
  46486000   247.20506     -417.24021     -334.44801     -417.18234      0              5459.287       30.923         21.319344      32.515505      21436.109      4619.0834      7001.5377      4757.2398     -23.001411      895.54853     -16.336701    
  46488000   245.98751     -419.57333     -337.18891     -419.51114      0              6893.201       30.923         21.319344      32.453968      21395.541      7314.3617      7787.117       5578.1242      218.62454      21.311483     -243.01424    
  46490000   247.89829     -417.19979     -334.17542     -417.14177      0              6538.3699      30.923         21.319344      32.374221      21342.966      5138.2057      9014.1755      5462.7286     -152.37439      2727.1422      1046.1369    
  46492000   249.30457     -421.89368     -338.39833     -421.83849      0              7471.1859      30.923         21.319344      32.504726      21429.003      8126.8993      7496.4117      6790.2468      510.37191     -2277.2763      464.22924    
  46494000   238.94242     -421.82531     -341.80038     -421.76993      0              7214.2906      30.923         21.319344      32.545116      21455.63       5896.0418      8511.5504      7235.2797      1543.1946      1250.2271     -993.93082    
  46496000   246.3244      -420.11342     -337.61616     -420.05424      0              6093.5985      30.923         21.319344      32.672078      21539.332      5134.9236      5740.7524      7405.1195      33.158159      172.61532      296.10956    
  46498000   252.06599     -417.88944     -333.46926     -417.8384       0              6960.0507      30.923         21.319344      32.604367      21494.692      8155.8672      7205.0268      5519.2581      268.55314     -1267.7722      299.8147     
  46500000   244.84648     -419.80684     -337.80456     -419.75641      0              5830.3097      30.923         21.319344      32.433522      21382.061      6493.8729      4270.7984      6726.2578      545.2184       533.38415     -605.19097    
  46502000   239.54573     -418.915       -338.68801     -418.85228      0              6057.7966      30.923         21.319344      32.488563      21418.347      6419.9978      4677.2502      7076.1418     -1502.9575      193.92092     -68.400927    
  46504000   245.89796     -419.20434     -336.84991     -419.1426       0              5435.5436      30.923         21.319344      32.627832      21510.162      7182.9212      6106.3993      3017.3104      150.1557       339.775       -457.71369    
  46506000   248.52325     -416.37455     -333.14087     -416.32338      0              5784.8134      30.923         21.319344      32.733516      21579.835      6550.3811      6209.7192      4594.34       -664.92811     -1324.4396      937.16696    
  46508000   240.67989     -420.37611     -339.76927     -420.32644      0              6614.1037      30.923         21.319344      32.532782      21447.499      6803.0701      6409.4497      6629.7914      342.1327       252.05931      3288.9351    
  46510000   245.33257     -418.08299     -335.91792     -418.02739      0              7380.0893      30.923         21.319344      32.34897       21326.32       9703.2552      5891.9587      6545.0541      239.29735     -1348.4595      401.31175    
  46512000   249.40135     -417.18955     -333.66179     -417.12839      0              6238.3677      30.923         21.319344      32.535789      21449.482      5311.3589      9020.5544      4383.1899     -563.87446      1035.094      -1707.033     
  46514000   252.53377     -418.977       -334.40015     -418.92316      0              5792.9872      30.923         21.319344      32.539209      21451.736      6331.094       5672.0389      5375.8288      404.45913     -777.02107      1179.5664    
  46516000   245.63568     -418.09165     -335.82506     -418.03819      0              6415.554       30.923         21.319344      32.494824      21422.475      5561.8083      7533.604       6151.2498     -633.63163      406.83849     -507.8141     
  46518000   242.19962     -418.26016     -337.14435     -418.20044      0              6050.6049      30.923         21.319344      32.59692       21489.783      6451.8308      8018.6054      3681.3784      987.59004     -1559.6828     -357.75569    
  46520000   244.48156     -420.5477      -338.66763     -420.49187      0              8141.0852      30.923         21.319344      32.448955      21392.235      7228.0002      7716.9511      9478.3043      454.52319      1142.9806      754.07456    
  46522000   244.51662     -421.83606     -339.94426     -421.7862       0              6267.2029      30.923         21.319344      32.533962      21448.277      7134.6687      5444.1961      6222.7439      130.57462      447.07824      1769.3355    
  46524000   244.12889     -418.91936     -337.15742     -418.85799      0              6081.4334      30.923         21.319344      32.568243      21470.877      6809.895       5785.3038      5649.1013      89.608013      792.28845      117.31121    
  46526000   244.13824     -417.70017     -335.93509     -417.63836      0              5491.4634      30.923         21.319344      32.717035      21568.969      6630.2325      5778.4836      4065.674      -670.87697     -1959.0274      144.4565     
  46528000   242.69458     -419.47876     -338.19718     -419.42544      0              5098.1324      30.923         21.319344      32.825466      21640.454      7083.5159      3741.2008      4469.6805     -715.62018     -458.56333      153.45449    
  46530000   241.65162     -419.76607     -338.83379     -419.71211      0              7207.89        30.923         21.319344      32.678003      21543.237      7558.0165      6570.0093      7495.6441      86.398236      2744.1158      996.13493    
  46532000   236.97393     -419.04546     -339.6798      -418.99412      0              6065.8478      30.923         21.319344      32.6116        21499.461      4660.9174      6066.0772      7470.549       345.12274      762.25502     -4.2571367    
  46534000   244.67872     -417.23242     -335.28632     -417.18611      0              7596.3661      30.923         21.319344      32.463296      21401.69       7223.426       8192.065       7373.6074      2918.6626     -65.229733      584.2986     
  46536000   244.72067     -416.40443     -334.44428     -416.34192      0              5982.0416      30.923         21.319344      32.482815      21414.558      5410.6459      5358.7884      7176.6906      1784.2131     -1844.7043      1004.2583    
  46538000   245.40832     -419.87304     -337.6826      -419.82433      0              5659.5334      30.923         21.319344      32.526394      21443.288      5101.9494      7447.0965      4429.5541      677.55813      712.93146     -1509.1333    
  46540000   238.68814     -416.86523     -336.92546     -416.81261      0              4762.3444      30.923         21.319344      32.532798      21447.51       5590.8423      4329.4637      4366.7271      1268.6679      580.67031      914.436      
  46542000   247.77313     -415.29137     -332.30892     -415.23173      0              5440.2701      30.923         21.319344      32.442691      21388.106      5832.0647      6014.6194      4474.1261     -860.90885      1109.0982      1997.7883    
  46544000   244.771       -418.38326     -336.40626     -418.356        0              7421.3234      30.923         21.319344      32.474813      21409.283      6919.0168      7683.2428      7661.7106      905.65221      65.635781      791.72474    
  46546000   240.27391     -419.63723     -339.16637     -419.5832       0              5961.7076      30.923         21.319344      32.553507      21461.162      7529.1285      4391.3706      5964.6239      378.64306      924.61905     -106.12645    
  46548000   241.25236     -418.8244      -338.02584     -418.77452      0              4803.8331      30.923         21.319344      32.648972      21524.099      3957.7563      5858.6701      4595.073       201.57516      290.86587     -2275.5479    
  46550000   242.49292     -416.7019      -335.48787     -416.6504       0              4269.4372      30.923         21.319344      32.707288      21562.544      5137.1032      4053.5747      3617.6337     -11.976854     -922.04358      843.70332    
  46552000   240.78725     -418.49129     -337.8485      -418.42941      0              4869.9863      30.923         21.319344      32.676733      21542.4        4601.7132      6356.1481      3652.0977     -334.41285     -960.26575      458.01651    
  46554000   238.25923     -420.49035     -340.69423     -420.4464       0              4599.1946      30.923         21.319344      32.764647      21600.358      4686.2722      4727.7758      4383.5358     -416.33337      190.55428      2260.5688    
  46556000   243.04277     -415.44504     -334.04685     -415.38238      0              5996.3608      30.923         21.319344      32.85359       21658.994      7805.1332      5224.1539      4959.7952     -21.487099     -418.27049      863.5656     
  46558000   255.65996     -417.92281     -332.29895     -417.88136      0              3529.2053      30.923         21.319344      32.770334      21604.107      2942.5078      4038.0072      3607.101       536.11459      1315.9015      551.78781    
  46560000   232.81872     -417.52112     -339.54709     -417.49314      0              6356.8037      30.923         21.319344      32.61982       21504.88       5395.3099      6298.4463      7376.6548      1044.7703     -315.31148     -1058.4825    
  46562000   252.37545     -418.47055     -333.94672     -418.40895      0              5714.6569      30.923         21.319344      32.716333      21568.507      4283.3719      8402.4657      4458.1329      2479.58        222.52686      859.72461    
  46564000   243.00381     -417.72887     -336.34372     -417.66636      0              5879.2669      30.923         21.319344      32.594005      21487.861      5875.8381      5537.7185      6224.2442      567.88894      780.52828     -1144.8024    
  46566000   248.54656     -415.27374     -332.03226     -415.21116      0              6838.0465      30.923         21.319344      32.604102      21494.517      5287.3775      8027.4639      7199.2983      55.827675      681.11586     -72.469023    
  46568000   247.12202     -418.93756     -336.17318     -418.87604      0              7430.567       30.923         21.319344      32.498026      21424.586      7509.7573      6465.8286      8316.115       1192.5645      133.73448     -5.6816526    
  46570000   251.47136     -418.02547     -333.80443     -417.98795      0              5819.4429      30.923         21.319344      32.489739      21419.123      5620.4545      6612.6908      5225.1835      38.927007     -29.949089     -832.5701     
  46572000   241.62241     -416.86971     -335.94722     -416.81936      0              7175.5525      30.923         21.319344      32.505631      21429.599      7254.6433      6054.8644      8217.1497      697.5162       1722.0302      870.30811    
  46574000   251.12866     -419.39487     -335.28861     -419.34082      0              5231.7941      30.923         21.319344      32.604753      21494.947      5469.4539      4778.3363      5447.5922     -1119.2351      101.12353     -1615.8087    
  46576000   245.48177     -418.26243     -336.04738     -418.21864      0              7140.5007      30.923         21.319344      32.673875      21540.516      8118.9408      5295.9361      8006.6251      737.2052      -387.2964      -1067.8475    
  46578000   250.76751     -416.10542     -332.12011     -416.04655      0              5964.8848      30.923         21.319344      32.625154      21508.396      4648.2176      7485.3544      5761.0823      1453.334      -295.42453      2109.4615    
  46580000   243.084       -417.79105     -336.37905     -417.73146      0              6472.7664      30.923         21.319344      32.519276      21438.595      7233.0908      6208.0533      5977.155       20.780565      641.63254     -1955.6109    
  46582000   248.97591     -417.60446     -334.21918     -417.55138      0              7951.466       30.923         21.319344      32.574824      21475.216      9156.0668      7706.9812      6991.3499     -169.77278      95.254974      421.38408    
  46584000   248.26626     -417.19667     -334.04907     -417.13961      0              7362.0166      30.923         21.319344      32.698316      21556.629      6606.3266      8113.7545      7365.9688     -1331.4727     -269.78865     -867.53717    
  46586000   245.31836     -418.07769     -335.91737     -418.02134      0              5617.5621      30.923         21.319344      32.751454      21591.661      5748.0308      4246.0697      6858.5857      669.01926      20.963559     -966.9971     
  46588000   243.02393     -417.60544     -336.21356     -417.54292      0              3208.7365      30.923         21.319344      32.807216      21628.422      3002.4382      4136.708       2487.0631      163.1922       648.87051      806.42384    
  46590000   247.65255     -415.57458     -332.63251     -415.51218      0              7340.1725      30.923         21.319344      32.728324      21576.412      8497.6144      6663.3888      6859.5144      324.03186      341.63947      18.723543    
  46592000   240.60013     -419.68973     -339.10961     -419.63055      0              3281.8964      30.923         21.319344      32.661613      21532.432      3507.6176      3088.1034      3249.9684      2522.6692     -904.76968      655.64236    
  46594000   239.61522     -419.29527     -339.04501     -419.2441       0              6029.1366      30.923         21.319344      32.545085      21455.61       5489.3168      6480.7249      6117.3682      219.14902     -1214.1242      638.48195    
  46596000   247.38553     -418.41681     -335.56417     -418.36594      0              6334.912       30.923         21.319344      32.627067      21509.658      8658.6587      3964.5649      6381.5123     -2141.3253      47.804875     -212.38583    
  46598000   248.51256     -417.41811     -334.18802     -417.3724       0              5587.5728      30.923         21.319344      32.559932      21465.398      4089.0624      5361.8236      7311.8324     -615.26881      1029.8185      1345.1112    
  46600000   243.75695     -417.89192     -336.25454     -417.83299      0              6756.4485      30.923         21.319344      32.742115      21585.504      5589.8406      6480.7259      8198.7789     -668.1698      -222.3664      -1221.7127    
  46602000   233.36313     -420.32416     -342.16781     -420.26983      0              5798.7331      30.923         21.319344      32.71399       21566.962      5767.8823      7236.6615      4391.6555      44.132677     -934.37173     -745.59242    
  46604000   242.12376     -417.41003     -336.31963     -417.35788      0              5353.0197      30.923         21.319344      32.831928      21644.714      4874.2508      4212.1987      6972.6096     -1407.9655     -1571.6075      728.15172    
  46606000   255.18033     -418.69581     -333.23259     -418.63428      0              5633.059       30.923         21.319344      32.570084      21472.091      3066.3605      7256.6981      6576.1183     -529.26445     -798.85128     -1638.4855    
  46608000   248.47613     -417.27348     -334.05559     -417.21836      0              4092.3199      30.923         21.319344      32.620146      21505.095      4261.0274      3572.8773      4443.0549      824.98543      233.77156      799.80315    
  46610000   249.13561     -420.15908     -336.72032     -420.09674      0              6250.8321      30.923         21.319344      32.679002      21543.896      7701.2725      5525.8935      5525.3302      1312.6395     -1750.7252      283.04035    
  46612000   242.95231     -418.82539     -337.45749     -418.77285      0              5021.9108      30.923         21.319344      32.779629      21610.235      4430.4734      4860.6072      5774.6517     -949.8536      -773.27832     -198.8057     
  46614000   248.59772     -419.08186     -335.82324     -419.02095      0              5609.6728      30.923         21.319344      32.650435      21525.063      5491.7742      5093.4322      6243.8121     -512.05043      459.1219       1056.4432    
  46616000   244.45243     -419.28733     -337.41702     -419.23613      0              4341.6706      30.923         21.319344      32.603236      21493.946      4094.2773      4487.1219      4443.6125      494.60525     -1649.6296     -644.23699    
  46618000   245.08315     -417.28466     -335.20312     -417.23269      0              6562.4356      30.923         21.319344      32.573723      21474.49       6351.0343      7095.2565      6241.016      -423.20761     -670.42365      281.94175    
  46620000   239.31958     -419.22079     -339.06954     -419.16248      0              5616.9285      30.923         21.319344      32.442002      21387.652      3730.8028      6049.5234      7070.4593      1514.5503      816.88975     -264.89838    
  46622000   247.55128     -414.11794     -331.20979     -414.05886      0              5800.5485      30.923         21.319344      32.394027      21356.024      4564.1347      6737.2021      6100.3088      128.34659     -182.72181      491.68726    
  46624000   247.63906     -416.63692     -333.69937     -416.57768      0              8017.3344      30.923         21.319344      32.370246      21340.346      7929.2793      7294.7142      8828.0097      469.11572     -903.78159     -626.90984    
  46626000   245.98541     -418.38453     -336.0008      -418.32323      0              6188.187       30.923         21.319344      32.574047      21474.704      5419.134       7239.8171      5905.61       -469.5752      -917.98235     -439.82103    
  46628000   238.438       -420.77133     -340.91533     -420.71668      0              6079.5702      30.923         21.319344      32.563654      21467.852      5165.4309      6238.5526      6834.7271      1249.7475      1045.6975     -555.45822    
  46630000   239.99913     -420.5418      -340.16296     -420.48128      0              6910.6915      30.923         21.319344      32.566608      21469.799      6539.6306      6924.0341      7268.4097      1258.9824     -1295.4574      405.11088    
  46632000   243.39457     -419.95956     -338.44355     -419.89719      0              7364.879       30.923         21.319344      32.623498      21507.304      9498.2176      5546.4513      7049.968       154.15122     -1263.3533      359.20293    
  46634000   242.03197     -419.73768     -338.67801     -419.676        0              4186.2369      30.923         21.319344      32.621081      21505.711      4302.7799      4996.9438      3258.9872      43.215417      471.41118      1170.5101    
  46636000   244.15533     -416.97047     -335.19967     -416.90819      0              5234.4916      30.923         21.319344      32.458182      21398.318      6891.5091      2563.0251      6248.9405     -251.30272     -879.95804      1226.9745    
  46638000   242.13122     -419.68957     -338.59667     -419.63253      0              6972.4963      30.923         21.319344      32.693513      21553.463      6824.1243      5907.117       8186.2475      498.80055      818.42536     -44.425859    
  46640000   243.95314     -419.12626     -337.42317     -419.06568      0              7091.7661      30.923         21.319344      32.565102      21468.806      8678.3736      5792.5965      6804.3281     -1089.4548     -853.58905     -97.042406    
  46642000   248.868       -420.54536     -337.19623     -420.48993      0              7893.3615      30.923         21.319344      32.454724      21396.039      7750.1748      9999.2685      5930.6411      102.30479     -1432.1404      1208.6391    
  46644000   248.65869     -419.92048     -336.64144     -419.85977      0              5317.7815      30.923         21.319344      32.598514      21490.834      4376.7726      7335.9472      4240.6245      87.986478     -32.724564      118.50163    
  46646000   251.97256     -419.65986     -335.27096     -419.60343      0              7466.3588      30.923         21.319344      32.46906       21405.49       7132.3901      7726.3539      7540.3325     -183.70104     -1394.4263      25.836178    
  46648000   239.80678     -418.12161     -337.80719     -418.06385      0              6179.8307      30.923         21.319344      32.71304       21566.336      4335.6474      7742.8084      6461.0362     -1598.1664     -507.62326     -95.397372    
  46650000   245.48672     -421.97676     -339.76006     -421.936        0              3992.7475      30.923         21.319344      32.610961      21499.039      3698.6417      4071.1908      4208.4101      1568.7183     -620.08882      899.20312    
  46652000   242.01909     -417.80658     -336.75123     -417.74478      0              8391.8902      30.923         21.319344      32.59903       21491.174      6731.9696      9643.1045      8800.5964     -409.95117      844.37192      535.583      
  46654000   243.47797     -419.28776     -337.74381     -419.23367      0              6221.1283      30.923         21.319344      32.499127      21425.312      8900.1199      3174.3004      6588.9644     -18.589468      1413.4807      112.35646    
  46656000   241.17935     -420.25664     -339.48253     -420.19545      0              6734.0799      30.923         21.319344      32.663605      21533.745      6141.6822      5936.2057      8124.3519     -395.06132      1277.09        958.17606    
  46658000   246.56993     -420.25364     -337.67416     -420.19215      0              6442.1195      30.923         21.319344      32.626215      21509.096      8296.6897      7146.3576      3883.3111     -1439.8444      333.167        543.32438    
  46660000   237.53886     -417.04509     -337.49023     -416.99209      0              3670.58        30.923         21.319344      32.727296      21575.734      5339.9725      3495.0222      2176.7454      3396.4459     -1716.3947     -120.6801     
  46662000   250.48607     -419.92538     -336.03433     -419.86951      0              4512.5164      30.923         21.319344      32.657198      21529.521      7763.3817      2628.6147      3145.5527      430.99027     -1098.6745     -139.47476    
  46664000   243.15135     -419.45179     -338.01723     -419.39525      0              7697.723       30.923         21.319344      32.6443        21521.018      8696.9538      8159.4227      6236.7924      1076.3025     -1341.2064      646.52516    
  46666000   247.35445     -417.20659     -334.36436     -417.14786      0              4297.6739      30.923         21.319344      32.474103      21408.814      3301.886       6140.0852      3451.0504      2781.9384     -1669.2407     -1148.9815    
  46668000   251.24403     -419.87801     -335.73311     -419.82547      0              5654.2052      30.923         21.319344      32.539519      21451.941      6489.5938      4244.9045      6228.1173     -791.40452      1116.1262     -596.95114    
  46670000   244.5889      -418.9302      -337.01418     -418.86796      0              6617.8135      30.923         21.319344      32.519259      21438.584      6882.5139      7390.3145      5580.6121      449.20379      2058.2334      1575.2668    
  46672000   243.47697     -419.15353     -337.60992     -419.09177      0              4136.5575      30.923         21.319344      32.447551      21391.31       2811.3502      4594.9743      5003.3479      1457.512       116.9323      -1728.1106    
  46674000   247.40957     -418.50038     -335.63969     -418.43896      0              7183.3383      30.923         21.319344      32.467996      21404.788      7363.9199      6516.7467      7669.3484      1445.9356      1019.1447     -274.14879    
  46676000   246.25505     -417.57896     -335.10493     -417.52166      0              7701.1062      30.923         21.319344      32.526503      21443.36       8216.3279      7271.6578      7615.3329      1018.2624      5.0132501     -864.79297    
  46678000   238.05703     -420.33057     -340.60216     -420.26912      0              7823.2793      30.923         21.319344      32.493775      21421.784      8453.4705      9983.4093      5032.958       2285.4356     -2347.5179     -322.24512    
  46680000   246.67172     -419.34902     -336.73545     -419.29806      0              5619.803       30.923         21.319344      32.441271      21387.17       5649.5712      4221.2461      6988.5917      1604.0878     -453.25851     -219.32839    
  46682000   253.76296     -417.37536     -332.38683     -417.31565      0              6798.2887      30.923         21.319344      32.684517      21547.532      6144.3163      7893.2306      6357.3191      1256.0566      567.08099      351.30986    
  46684000   251.00957     -419.4047      -335.33833     -419.3518       0              5205.3216      30.923         21.319344      32.587103      21483.311      7512.4995      5002.636       3100.8294      751.92895      406.96259     -1144.6556    
  46686000   241.58236     -418.32551     -337.41642     -418.27413      0              5661.443       30.923         21.319344      32.615371      21501.947      5298.7596      6957.4605      4728.1088      947.36963     -1341.8182      359.00236    
  46688000   240.53587     -417.42257     -336.86397     -417.36057      0              6697.6493      30.923         21.319344      32.550643      21459.275      6294.7741      6496.7085      7301.4653      1274.8662     -8.7082742      669.15619    
[...]
  53094000   250.48393     -420.62337     -336.73304     -420.6317       0              7334.3252      30.923         21.319344      32.526718      21443.502      6782.4539      8584.917       6635.6047      1027.0303      282.70261      97.304438    
  53096000   241.40708     -421.14526     -340.29488     -421.16132      0              5504.3632      30.923         21.319344      32.645888      21522.065      4978.7207      5063.9561      6470.4129     -854.111       -1086.2417      919.80958    
  53098000   244.13014     -420.49414     -338.73177     -420.49694      0              6007.1529      30.923         21.319344      32.611334      21499.285      6646.2478      5082.41        6292.8008     -214.29053      143.82358      157.67546    
  53100000   247.40626     -422.91477     -340.05519     -422.91227      0              4922.2828      30.923         21.319344      32.783561      21612.827      4617.7071      4866.8967      5282.2447      1034.0268     -636.00535     -484.32285    
  53102000   251.82876     -421.585       -337.24426     -421.59309      0              4968.8856      30.923         21.319344      32.655135      21528.162      4427.8255      4899.7664      5579.0649      47.568732     -1189.6555     -1030.3292    
  53104000   250.87307     -420.87773     -336.85707     -420.88471      0              6087.3585      30.923         21.319344      32.46101       21400.183      5803.0523      5059.8194      7399.2039     -311.54929      914.21617      732.37822    
  53106000   244.35894     -417.67742     -335.83843     -417.67433      0              6451.9944      30.923         21.319344      32.712349      21565.88       5802.754       7534.1614      6019.0676      269.79768     -797.55825      167.92895    
  53108000   247.8163      -418.03557     -335.03866     -418.03859      0              6357.366       30.923         21.319344      32.645524      21521.826      6639.4476      5390.5777      7042.0727     -448.60603      687.82971     -682.85793    
  53110000   254.9518      -419.99209     -334.60541     -419.99408      0              5663.2982      30.923         21.319344      32.716018      21568.299      8953.1969      4336.7459      3699.9519     -231.77448     -672.45478      651.64666    
  53112000   248.13092     -419.58146     -336.47918     -419.59383      0              7464.8742      30.923         21.319344      32.575208      21475.469      7836.6434      8147.3652      6410.614      -349.0057      -244.23849     -184.08627    
  53114000   245.99608     -419.86077     -337.47347     -419.86267      0              3999.0756      30.923         21.319344      32.76136       21598.191      4874.2632      3148.3139      3974.6498     -978.07912      844.44078     -1633.8471    
  53116000   244.47658     -420.27271     -338.39431     -420.27872      0              6471.2135      30.923         21.319344      32.522975      21441.034      5614.9094      7256.1008      6542.6303     -328.74298      1523.0403      517.0393     
  53118000   240.75194     -419.90093     -339.26997     -419.91104      0              7085.2397      30.923         21.319344      32.590962      21485.855      8081.1293      7303.1846      5871.4052      7.1805471     -102.55929     -1200.1984    
  53120000   243.8923      -415.17168     -333.48897     -415.17205      0              5357.5529      30.923         21.319344      32.572412      21473.626      4799.2737      5907.705       5365.6801      1045.3055     -498.92934     -720.10949    
  53122000   249.7602      -421.73265     -338.08471     -421.74793      0              6046.0255      30.923         21.319344      32.5573        21463.663      4489.0452      6984.2343      6664.7969     -990.60098     -641.65416      261.92017    
  53124000   240.35112     -419.52346     -339.02674     -419.53852      0              6320.4806      30.923         21.319344      32.505943      21429.805      5687.7361      8280.4476      4993.2582      1491.2902     -1221.7016      787.08518    
  53126000   243.61744     -423.42333     -341.83268     -423.45567      0              5291.2319      30.923         21.319344      32.460257      21399.687      5456.046       4954.2796      5463.3701     -1049.9025     -1189.7603     -750.58335    
  53128000   241.46569     -422.76764     -341.89763     -422.79111      0              7595.0489      30.923         21.319344      32.455612      21396.624      8127.5985      8397.9546      6259.5935     -450.46837     -386.04611      255.05673    
  53130000   246.93556     -419.92011     -337.21817     -419.96082      0              6443.139       30.923         21.319344      32.473094      21408.149      6230.8581      7269.7378      5828.8212      300.11383     -112.69895     -221.05589    
  53132000   247.2083      -419.26632     -336.47304     -419.27861      0              7979.7095      30.923         21.319344      32.316872      21305.159      8187.5563      6205.4201      9546.1521     -1626.935       2156.4232      463.81944    
  53134000   244.78297     -420.46878     -338.48777     -420.48907      0              6013.065       30.923         21.319344      32.380966      21347.413      5713.9705      5404.4216      6920.8028     -414.20694     -1009.045       1292.0511    
  53136000   247.94462     -419.79831     -336.75842     -419.82015      0              5677.607       30.923         21.319344      32.425086      21376.5        5214.1854      4697.0874      7121.5483      679.86055      860.19053      1364.3885    
  53138000   250.99288     -419.2596      -335.19881     -419.27456      0              6205.8121      30.923         21.319344      32.601203      21492.607      7729.5189      4716.7038      6171.2135     -1389.471       1646.0131      552.1552     
  53140000   246.27476     -417.97688     -335.49625     -417.98401      0              5243.5879      30.923         21.319344      32.61455       21501.405      5921.9172      4892.9122      4915.9342      1174.8709     -1646.0121      409.86779    
  53142000   243.28741     -421.4606      -339.98048     -421.47658      0              4753.6872      30.923         21.319344      32.650664      21525.214      6436.0623      3733.9192      4091.0802      35.448367     -183.52173     -571.7124     
  53144000   242.65473     -418.83799     -337.56976     -418.86093      0              9031.5717      30.923         21.319344      32.49252       21420.956      7593.6689      9280.0202      10221.026      232.79471     -717.78996     -430.40105    
  53146000   247.18143     -418.5414      -335.75711     -418.55507      0              6205.8242      30.923         21.319344      32.472288      21407.618      5906.3929      7159.2323      5551.8475     -590.33044      1584.7715     -735.87493    
  53148000   242.90106     -417.98231     -336.63158     -418.00243      0              6585.0073      30.923         21.319344      32.496199      21423.382      6500.8061      6940.9856      6313.2303     -441.37809      748.97597      738.64132    
  53150000   243.22627     -419.72202     -338.26238     -419.73589      0              7447.6204      30.923         21.319344      32.392675      21355.133      6796.1887      7258.3004      8288.3721     -1090.0364      865.9063      -326.12866    
  53152000   244.05801     -418.18206     -336.44385     -418.19566      0              6645.1694      30.923         21.319344      32.56489       21468.667      6737.0831      7282.0823      5916.3429     -1352.5034      554.61498     -291.2159     
  53154000   249.25039     -419.61233     -336.13513     -419.63791      0              5461.4934      30.923         21.319344      32.618092      21503.741      5977.7029      5363.5326      5043.2446     -1084.2571      264.50351      947.60981    
  53156000   245.31519     -418.25707     -336.09781     -418.27884      0              6894.7537      30.923         21.319344      32.533172      21447.757      6379.4         6750.7093      7554.1519      605.01858      1173.1179     -499.16631    
  53158000   241.83217     -419.37401     -338.38126     -419.39383      0              5246.322       30.923         21.319344      32.59098       21485.867      6702.3258      2300.6929      6735.9474     -248.35021      486.27836      1053.3413    
  53160000   246.77945     -419.52783     -336.87817     -419.5475       0              5203.7637      30.923         21.319344      32.644487      21521.142      5317.6645      4778.5375      5515.0892     -276.1401      -766.27015     -1419.3666    
  53162000   249.45771     -423.06761     -339.52097     -423.09364      0              6810.0037      30.923         21.319344      32.560758      21465.943      8157.6076      6799.34        5473.0636      987.34922     -367.38672     -1349.5912    
  53164000   241.44164     -418.98555     -338.1236      -418.99439      0              6794.5584      30.923         21.319344      32.439519      21386.015      6838.8624      6811.0247      6733.7881     -336.45111      209.8204      -1391.5755    
  53166000   246.57704     -415.88417     -333.30231     -415.88127      0              7389.2881      30.923         21.319344      32.489685      21419.087      7289.6122      8486.0359      6392.2162      661.5257       506.82242     -471.15339    
  53168000   246.14768     -419.77191     -337.33384     -419.78883      0              6428.3493      30.923         21.319344      32.533627      21448.056      5401.1341      6956.9589      6926.9549      193.6573       704.34052     -1833.6637    
  53170000   245.23128     -417.83928     -335.70813     -417.84976      0              8129.5333      30.923         21.319344      32.584912      21481.867      6644.0768      9578.2109      8166.3121     -803.99261     -280.74437     -883.03702    
  53172000   245.6826      -420.58242     -338.30011     -420.59629      0              6331.192       30.923         21.319344      32.639958      21518.156      5685.6463      7059.1296      6248.8001      1102.0587      788.35288     -784.49189    
  53174000   234.72121     -419.26415     -340.65296     -419.27188      0              4878.0229      30.923         21.319344      32.67109       21538.68       3742.2219      5975.6935      4916.1533      34.950345     -562.73114      122.33557    
  53176000   253.0748      -419.44448     -334.68643     -419.45113      0              5798.9162      30.923         21.319344      32.539748      21452.092      3875.6962      6429.2963      7091.7559      1790.1558     -387.23525     -319.54999    
  53178000   241.69449     -419.15881     -338.21217     -419.1835       0              7537.7683      30.923         21.319344      32.629043      21510.96       9337.7988      7469.2612      5806.2449     -126.15631     -1485.688       290.07069    
  53180000   243.65033     -422.45991     -340.85824     -422.49782      0              6798.5062      30.923         21.319344      32.626968      21509.592      6838.9856      7798.8883      5757.6445      52.368259     -1097.4469     -1601.1673    
  53182000   245.14154     -418.33086     -336.22976     -418.34366      0              6452.0026      30.923         21.319344      32.724997      21574.219      6579.0472      6887.2438      5889.7167      82.159389     -1102.9819      309.75492    
  53184000   240.84478     -422.66857     -342.00652     -422.70171      0              6004.6126      30.923         21.319344      32.558537      21464.479      3580.7433      6692.1441      7740.9504     -103.80507      1543.4378     -609.62369    
  53186000   240.57643     -420.68697     -340.11478     -420.70543      0              6743.2973      30.923         21.319344      32.654341      21527.638      6049.2017      6190.1353      7990.5549     -268.94719      335.38801     -1039.2221    
  53188000   249.03538     -422.11551     -338.71032     -422.16718      0              5933.6155      30.923         21.319344      32.576527      21476.339      7237.843       5285.4077      5277.5958      421.75634     -689.85602     -432.24456    
  53190000   252.34362     -421.04955     -336.53638     -421.0726       0              4921.4832      30.923         21.319344      32.702143      21559.152      6025.9905      3898.6224      4839.8367     -85.745692     -189.40898     -496.24557    
  53192000   244.86059     -421.87818     -339.87118     -421.90047      0              5065.2243      30.923         21.319344      32.506256      21430.012      6097.9021      5689.3762      3408.3947     -5.7939107     -1447.3982     -240.42164    
  53194000   246.42395     -421.77252     -339.24193     -421.78826      0              5139.9759      30.923         21.319344      32.5739        21474.607      5021.6119      4269.3655      6128.9503      565.43976     -844.59471      650.27201    
  53196000   239.96395     -421.56501     -341.19795     -421.57792      0              8188.3889      30.923         21.319344      32.438592      21385.404      7549.9715      7805.1046      9210.0905     -900.62073      460.6664       1308.6542    
  53198000   240.35619     -421.83738     -341.33896     -421.86332      0              6018.9853      30.923         21.319344      32.414836      21369.742      5742.6088      4979.0032      7335.3438     -131.61381      488.52561     -768.46564    
  53200000   244.33584     -421.51503     -339.68378     -421.52964      0              5628.0705      30.923         21.319344      32.45383       21395.45       7172.2209      2726.0414      6985.9493     -1652.0681     -43.163319      297.26254    
  53202000   241.94739     -419.77062     -338.73929     -419.79208      0              6592.2285      30.923         21.319344      32.46997       21406.09       6539.2613      7463.9913      5773.4331     -608.22431     -623.65573     -538.67975    
  53204000   244.18675     -421.49097     -339.70964     -421.50982      0              7239.0933      30.923         21.319344      32.582913      21480.548      5267.6474      8520.7305      7928.9021      630.2081       670.92405     -71.116847    
  53206000   249.685       -421.25643     -337.63367     -421.28135      0              7505.4959      30.923         21.319344      32.555083      21462.201      4072.3623      9942.9083      8501.2172      768.79765     -1741.0312     -985.19679    
  53208000   249.26919     -420.70317     -337.21966     -420.70942      0              4864.0045      30.923         21.319344      32.582532      21480.297      4337.0147      5362.0007      4892.998       574.84185     -1183.925       357.7002     
  53210000   247.63744     -422.21804     -339.28103     -422.23624      0              6034.3083      30.923         21.319344      32.640203      21518.317      5975.4007      6368.7214      5758.8027     -756.00972     -668.9759       422.11537    
  53212000   245.70049     -418.97784     -336.68955     -418.97958      0              6100.0814      30.923         21.319344      32.64257       21519.878      6927.1498      6932.6261      4440.4683     -140.11631     -2175.3111     -596.78828    
  53214000   240.7012      -420.7929      -340.17893     -420.81704      0              5903.9666      30.923         21.319344      32.68111       21545.286      7649.4062      3865.5041      6196.9894      1336.5916      418.44469     -367.19272    
  53216000   249.02052     -418.82052     -335.4203      -418.84016      0              6699.4167      30.923         21.319344      32.605245      21495.271      5960.2146      6094.0714      8043.9642      372.77154      505.5964      -562.69547    
  53218000   243.76263     -418.99122     -337.35194     -418.98924      0              7810.4151      30.923         21.319344      32.538261      21451.112      8421.1227      8647.9713      6362.1512      1494.7015      157.27789     -1604.7155    
  53220000   255.71638     -420.97174     -335.32898     -420.98381      0              7899.5705      30.923         21.319344      32.388297      21352.246      8466.7016      6842.2729      8389.7371     -2085.8444      337.6082       936.40881    
  53222000   243.82355     -420.35366     -338.69398     -420.37446      0              6873.5429      30.923         21.319344      32.503432      21428.15       6035.8392      7713.095       6871.6944     -373.07573      289.71902     -414.95097    
  53224000   241.90821     -422.98176     -341.96355     -422.99285      0              6200.7622      30.923         21.319344      32.551838      21460.062      4587.3528      6800.6448      7214.289      -472.8563       84.776278      965.9781     
  53226000   246.50074     -421.45414     -338.89782     -421.4628       0              3968.3823      30.923         21.319344      32.550318      21459.06       4054.1295      4414.6194      3436.3979     -596.42627     -189.76328      705.25186    
  53228000   246.15411     -418.58072     -336.1405      -418.58161      0              6887.6519      30.923         21.319344      32.550292      21459.043      7086.0336      6232.0426      7344.8795      731.71445      1124.0093     -458.12872    
  53230000   246.41605     -422.17732     -339.64937     -422.18813      0              6708.0076      30.923         21.319344      32.78664       21614.857      6951.3223      6993.418       6179.2825     -298.79522      115.72288      45.462526    
  53232000   241.0557      -419.74678     -339.01409     -419.76025      0              5920.1665      30.923         21.319344      32.736866      21582.043      5783.1607      5291.6844      6685.6542     -700.52381     -756.20267      939.27207    
  53234000   239.93729     -421.55606     -341.19794     -421.56015      0              3546.3272      30.923         21.319344      32.573867      21474.585      3090.8627      2210.2229      5337.896      -593.86705     -870.51953      1797.8543    
  53236000   239.74447     -420.51923     -340.22569     -420.52927      0              6166.4931      30.923         21.319344      32.635885      21515.471      6053.7051      3740.3569      8705.4173      1144.8071      974.12766      464.07702    
WARNING: Wall time limit reached (../timer.cpp:193)
Loop time of 85797.1 on 4 procs for 7115000 steps with 2592 atoms

Performance: 3.583 ns/day, 6.699 hours/ns, 82.928 timesteps/s
1394.7% CPU use with 4 MPI tasks x no OpenMP threads

MPI task timing breakdown:
Section |  min time  |  avg time  |  max time  |%varavg| %total
---------------------------------------------------------------
Pair    | 19888      | 19996      | 20091      |  63.8 | 23.31
Bond    | 0.64856    | 0.70794    | 0.77042    |   5.2 |  0.00
Neigh   | 611.95     | 622.29     | 632.51     |  38.0 |  0.73
Comm    | 2219.8     | 2301.1     | 2398.2     | 162.9 |  2.68
Output  | 9116.2     | 9116.2     | 9116.3     |   0.0 | 10.63
Modify  | 53737      | 53741      | 53745      |   1.3 | 62.64
Other   |            | 19.93      |            |       |  0.02

Nlocal:            648 ave         656 max         642 min
Histogram: 2 0 0 0 0 0 0 1 0 1
Nghost:           4244 ave        4247 max        4240 min
Histogram: 1 0 0 0 0 1 0 1 0 1
Neighs:              0 ave           0 max           0 min
Histogram: 4 0 0 0 0 0 0 0 0 0
FullNghs:       167242 ave      170537 max      163656 min
Histogram: 1 0 1 0 0 0 0 0 1 1

Total # of neighbors = 668970
Ave neighs/atom = 258.09028
Ave special neighs/atom = 0
Neighbor list builds = 142300
Dangerous builds not checked
unfix 3
unfix 1
unfix 2


# Finalize simulation
write_restart	restart.lmp.${pid}
write_restart	restart.lmp.0
System init for write_restart ...
Generated 0 of 1 mixed pair_coeff terms from geometric mixing rule
write_data	data.final.${pid} nocoeff
write_data	data.final.0 nocoeff
System init for write_data ...
Generated 0 of 1 mixed pair_coeff terms from geometric mixing rule
Total wall time: 23:50:21
