LAMMPS data file via MDAnalysis

        1728  atoms
           0  bonds
           0  angles
           0  dihedrals
           0  impropers

           2  atom types
           0  bond types
           0  angle types
           0  dihedral types
           0  improper types

0.000000 18.084000 xlo xhi
0.000000 45.801891 ylo yhi
0.000000 22.062000 zlo zhi


Masses

1 15.999400
2 1.007940

Atoms

1 0 1 -1.179400 1.248313 2.293128 1.960896
2 0 2 0.589700 0.423254 2.004598 2.340667
3 0 2 0.589700 1.273931 3.235377 2.126201
4 0 1 -1.179400 3.134090 6.483585 20.703630
5 0 2 0.589700 3.938383 6.197677 20.279985
6 0 2 0.589700 2.970092 7.355639 20.347208
7 0 1 -1.179400 7.678578 9.507577 16.878271
8 0 2 0.589700 7.771686 9.527167 17.825146
9 0 2 0.589700 6.811904 9.870205 16.716082
10 0 1 -1.179400 3.519402 6.594723 6.293184
11 0 2 0.589700 2.682282 6.183104 6.095582
12 0 2 0.589700 3.444046 7.479668 5.938475
13 0 1 -1.179400 0.222528 10.290941 8.807794
14 0 2 0.589700 0.267590 11.146805 9.231462
15 0 2 0.589700 0.978115 9.814828 9.142449
16 0 1 -1.179400 3.100001 14.805681 6.242930
17 0 2 0.589700 3.061551 14.777188 7.193364
18 0 2 0.589700 3.799098 14.197406 6.014227
19 0 1 -1.179400 1.111412 2.050085 21.291582
20 0 2 0.589700 1.179615 2.147669 0.186823
21 0 2 0.589700 1.225197 2.937007 20.952309
22 0 1 -1.179400 9.762901 13.224780 17.094297
23 0 2 0.589700 10.514290 13.753332 16.836946
24 0 2 0.589700 9.805737 13.196817 18.044559
25 0 1 -1.179400 0.679115 20.730234 20.306086
26 0 2 0.589700 0.715342 20.912443 19.372562
27 0 2 0.589700 0.342661 19.836634 20.363865
28 0 1 -1.179400 5.398676 2.487476 1.586494
29 0 2 0.589700 4.852155 1.891174 2.092610
30 0 2 0.589700 5.362268 3.315308 2.062786
31 0 1 -1.179400 7.237419 22.310419 6.561889
32 0 2 0.589700 8.018201 22.206215 6.026425
33 0 2 0.589700 6.567618 21.804647 6.108908
34 0 1 -1.179400 0.596708 2.308497 9.412923
35 0 2 0.589700 0.667942 3.218420 9.699463
36 0 2 0.589700 1.479982 1.959623 9.496612
37 0 1 -1.179400 2.504584 22.310049 8.410856
38 0 2 0.589700 1.707584 22.025229 8.848722
39 0 2 0.589700 3.201136 22.111471 9.029410
40 0 1 -1.179400 7.983681 1.195594 20.020256
41 0 2 0.589700 7.194956 1.634582 20.327705
42 0 2 0.589700 7.670054 46.186214 19.624159
43 0 1 -1.179400 0.675503 10.664864 1.649634
44 0 2 0.589700 1.478394 10.312597 2.023602
45 0 2 0.589700 0.557444 11.509381 2.081713
46 0 1 -1.179400 14.460221 20.841383 19.509521
47 0 2 0.589700 15.158188 21.248112 20.015575
48 0 2 0.589700 13.669721 21.297642 19.786007
49 0 1 -1.179400 7.424294 14.229675 16.009174
50 0 2 0.589700 7.430813 15.099424 16.406412
51 0 2 0.589700 8.182492 13.787617 16.381941
52 0 1 -1.179400 0.183612 13.248965 17.355000
53 0 2 0.589700 0.333815 13.378492 18.285864
54 0 2 0.589700 17.546085 13.827987 17.148964
55 0 1 -1.179400 13.893568 13.570035 2.663163
56 0 2 0.589700 13.929767 13.390532 3.597208
57 0 2 0.589700 14.130672 12.739754 2.253189
58 0 1 -1.179400 9.636390 12.876957 9.599710
59 0 2 0.589700 8.786398 13.236013 9.360075
60 0 2 0.589700 9.666991 12.950622 10.548026
61 0 1 -1.179400 11.555527 21.846897 1.328615
62 0 2 0.589700 12.392662 21.473021 1.590001
63 0 2 0.589700 11.577040 22.744001 1.659674
64 0 1 -1.179400 7.676619 9.082586 1.896860
65 0 2 0.589700 7.789853 8.156212 1.685890
66 0 2 0.589700 7.687627 9.112774 2.847954
67 0 1 -1.179400 9.856584 13.102283 12.453608
68 0 2 0.589700 10.023746 12.221124 12.785599
69 0 2 0.589700 10.598545 13.620173 12.755773
70 0 1 -1.179400 5.842977 2.263826 16.406088
71 0 2 0.589700 5.706275 2.359369 15.469106
72 0 2 0.589700 5.110018 1.729155 16.701195
73 0 1 -1.179400 14.143349 18.381996 20.902540
74 0 2 0.589700 14.371664 19.191471 20.448797
75 0 2 0.589700 13.320503 18.108376 20.507370
76 0 1 -1.179400 10.237434 2.849282 13.319809
77 0 2 0.589700 10.344320 3.641654 12.796766
78 0 2 0.589700 10.395341 3.135164 14.214201
79 0 1 -1.179400 2.843761 21.248434 0.148674
80 0 2 0.589700 2.140228 21.037571 21.591124
81 0 2 0.589700 3.302347 21.980322 21.789837
82 0 1 -1.179400 5.389561 2.459624 5.965497
83 0 2 0.589700 4.673792 1.831745 6.034934
84 0 2 0.589700 6.137277 1.934530 5.691054
85 0 1 -1.179400 7.150494 22.152380 9.278936
86 0 2 0.589700 7.165823 22.301088 8.338986
87 0 2 0.589700 8.004632 21.777269 9.475727
88 0 1 -1.179400 4.556247 21.190281 12.484261
89 0 2 0.589700 4.648916 21.254017 11.539265
90 0 2 0.589700 4.800537 20.288176 12.688287
91 0 1 -1.179400 12.545771 9.364050 2.165828
92 0 2 0.589700 12.396082 9.220439 3.094730
93 0 2 0.589700 11.798336 9.883749 1.880669
94 0 1 -1.179400 0.200605 21.301229 9.551053
95 0 2 0.589700 17.523958 21.771494 9.239996
96 0 2 0.589700 0.052994 21.194180 10.485147
97 0 1 -1.179400 16.622576 9.270041 17.016386
98 0 2 0.589700 16.672636 8.369617 16.697536
99 0 2 0.589700 15.763494 9.576166 16.739378
100 0 1 -1.179400 4.833515 18.367496 8.866623
101 0 2 0.589700 5.520680 17.722010 9.017250
102 0 2 0.589700 4.960434 18.646929 7.965321
103 0 1 -1.179400 10.287885 10.488544 13.309027
104 0 2 0.589700 9.572084 9.902081 13.075600
105 0 2 0.589700 10.294346 10.489065 14.260633
106 0 1 -1.179400 12.304381 1.125842 2.330949
107 0 2 0.589700 12.275948 1.248402 3.274316
108 0 2 0.589700 11.457163 1.437214 2.024806
109 0 1 -1.179400 14.591277 5.089295 2.040143
110 0 2 0.589700 13.985287 5.613844 1.523156
111 0 2 0.589700 15.385561 5.616464 2.079273
112 0 1 -1.179400 1.120005 5.212976 9.753839
113 0 2 0.589700 0.920886 5.314122 10.679006
114 0 2 0.589700 1.945050 5.676662 9.635455
115 0 1 -1.179400 9.921591 13.100100 19.798786
116 0 2 0.589700 10.518392 13.744420 20.172840
117 0 2 0.589700 9.052968 13.439157 19.996988
118 0 1 -1.179400 14.287033 21.416693 2.059546
119 0 2 0.589700 14.194026 21.597805 2.989357
120 0 2 0.589700 14.909877 22.071379 1.751453
121 0 1 -1.179400 3.250071 9.438728 2.594097
122 0 2 0.589700 3.399359 9.452738 3.533871
123 0 2 0.589700 2.954641 8.547282 2.412452
124 0 1 -1.179400 4.988837 13.152800 16.848146
125 0 2 0.589700 5.058090 13.321796 17.782269
126 0 2 0.589700 5.771466 13.550272 16.476118
127 0 1 -1.179400 9.770247 20.918901 19.718229
128 0 2 0.589700 9.077353 21.477627 20.061857
129 0 2 0.589700 10.576859 21.364111 19.964439
130 0 1 -1.179400 16.047565 22.935637 8.700554
131 0 2 0.589700 16.018217 23.840216 9.010228
132 0 2 0.589700 15.198676 22.571968 8.937184
133 0 1 -1.179400 1.295734 2.438978 16.122545
134 0 2 0.589700 1.051532 3.252479 16.560650
135 0 2 0.589700 0.548589 1.859552 16.252371
136 0 1 -1.179400 5.403711 5.010595 2.786418
137 0 2 0.589700 5.434416 5.124332 3.730808
138 0 2 0.589700 4.704760 5.593442 2.499280
139 0 1 -1.179400 7.735605 9.209000 19.575327
140 0 2 0.589700 7.043748 9.607403 20.096087
141 0 2 0.589700 7.812413 8.318160 19.914808
142 0 1 -1.179400 5.540368 5.093466 19.900938
143 0 2 0.589700 5.571269 4.197857 20.235245
144 0 2 0.589700 5.586782 4.994547 18.955540
145 0 1 -1.179400 8.237412 6.770269 5.601538
146 0 2 0.589700 7.434618 6.260225 5.527189
147 0 2 0.589700 8.341577 6.917336 6.536096
148 0 1 -1.179400 15.952945 14.341571 16.506643
149 0 2 0.589700 15.874290 15.242987 16.816824
150 0 2 0.589700 15.965021 14.418007 15.558129
151 0 1 -1.179400 14.552410 10.654096 20.981640
152 0 2 0.589700 14.628027 10.743875 21.926058
153 0 2 0.589700 14.518885 11.554048 20.659342
154 0 1 -1.179400 9.705220 13.142682 2.167609
155 0 2 0.589700 10.504354 13.615160 1.948826
156 0 2 0.589700 9.781769 12.309444 1.705594
157 0 1 -1.179400 7.065195 16.871370 19.807474
158 0 2 0.589700 7.759958 17.433657 20.141449
159 0 2 0.589700 7.212104 16.844423 18.867605
160 0 1 -1.179400 7.960391 6.649238 20.586241
161 0 2 0.589700 7.412575 6.073413 20.058540
162 0 2 0.589700 7.690070 6.476746 21.482506
163 0 1 -1.179400 10.404503 5.427968 4.860723
164 0 2 0.589700 11.136077 5.865429 5.287953
165 0 2 0.589700 9.636905 5.917789 5.144722
166 0 1 -1.179400 3.345677 44.954948 8.690122
167 0 2 0.589700 2.540059 44.451977 8.600229
168 0 2 0.589700 3.710183 44.671825 9.523076
169 0 1 -1.179400 11.320617 22.407763 5.440217
170 0 2 0.589700 12.188206 22.246908 5.080864
171 0 2 0.589700 11.159453 23.336035 5.273149
172 0 1 -1.179400 5.177324 12.785932 2.404935
173 0 2 0.589700 4.447798 13.147939 1.909820
174 0 2 0.589700 5.258041 11.885039 2.093759
175 0 1 -1.179400 9.817488 3.128823 8.394009
176 0 2 0.589700 9.021003 2.662995 8.635361
177 0 2 0.589700 9.849195 3.069638 7.444729
178 0 1 -1.179400 16.440529 14.479310 2.022900
179 0 2 0.589700 15.627827 14.065193 2.300742
180 0 2 0.589700 16.298920 15.414210 2.169913
181 0 1 -1.179400 1.222947 5.330566 5.486139
182 0 2 0.589700 0.425194 5.798544 5.719045
183 0 2 0.589700 1.089061 4.443082 5.816523
184 0 1 -1.179400 7.109519 16.674973 9.513371
185 0 2 0.589700 7.918365 17.140753 9.317165
186 0 2 0.589700 7.302481 15.759137 9.314998
187 0 1 -1.179400 5.006071 20.718386 1.918821
188 0 2 0.589700 5.690224 21.341904 1.685660
189 0 2 0.589700 4.314555 20.875216 1.283011
190 0 1 -1.179400 12.465725 6.715405 1.245602
191 0 2 0.589700 12.445939 6.836013 0.301764
192 0 2 0.589700 12.495667 7.604086 1.597792
193 0 1 -1.179400 16.502651 9.376804 12.664401
194 0 2 0.589700 16.437475 8.480807 12.992712
195 0 2 0.589700 16.426954 9.288581 11.719842
196 0 1 -1.179400 16.328175 6.897894 13.353567
197 0 2 0.589700 17.098267 6.443814 13.021637
198 0 2 0.589700 15.592121 6.420682 12.979370
199 0 1 -1.179400 5.104908 12.987047 5.303113
200 0 2 0.589700 4.975961 12.781953 4.382553
201 0 2 0.589700 5.983584 13.354620 5.346024
202 0 1 -1.179400 16.074337 17.091648 17.174475
203 0 2 0.589700 16.794441 17.525991 16.725229
204 0 2 0.589700 15.309512 17.621387 16.963163
205 0 1 -1.179400 16.631548 14.632353 6.013362
206 0 2 0.589700 16.791998 15.483457 5.608547
207 0 2 0.589700 16.439842 14.836698 6.923122
208 0 1 -1.179400 12.888788 1.770335 17.218225
209 0 2 0.589700 12.075596 2.127895 16.872477
210 0 2 0.589700 12.730721 1.678833 18.152250
211 0 1 -1.179400 11.782988 14.568853 8.584235
212 0 2 0.589700 11.095084 14.013629 8.943127
213 0 2 0.589700 11.569905 15.449368 8.890692
214 0 1 -1.179400 14.710769 2.382060 1.637589
215 0 2 0.589700 13.841522 2.102685 1.910873
216 0 2 0.589700 14.676312 3.338225 1.663674
217 0 1 -1.179400 5.373957 10.401011 1.203403
218 0 2 0.589700 6.189299 9.914932 1.297562
219 0 2 0.589700 4.711380 9.825253 1.577526
220 0 1 -1.179400 14.953786 4.896610 19.783054
221 0 2 0.589700 14.152510 5.211674 20.191685
222 0 2 0.589700 15.652358 5.344712 20.252403
223 0 1 -1.179400 3.166865 6.259769 16.545801
224 0 2 0.589700 3.112542 7.182018 16.794594
225 0 2 0.589700 3.228432 6.273506 15.596258
226 0 1 -1.179400 5.360887 18.108707 1.072239
227 0 2 0.589700 4.643585 17.666672 1.518532
228 0 2 0.589700 5.380691 18.985415 1.453598
229 0 1 -1.179400 12.010271 9.287558 4.714621
230 0 2 0.589700 12.197934 8.465860 5.165231
231 0 2 0.589700 12.773597 9.835364 4.881064
232 0 1 -1.179400 2.829256 14.665415 13.364276
233 0 2 0.589700 3.605697 14.164023 13.128271
234 0 2 0.589700 2.885118 14.760715 14.309531
235 0 1 -1.179400 17.276890 0.740183 16.452354
236 0 2 0.589700 16.583834 1.362718 16.244167
237 0 2 0.589700 17.401693 46.042061 15.650529
238 0 1 -1.179400 3.139100 17.254229 5.526140
239 0 2 0.589700 3.121000 16.338259 5.801689
240 0 2 0.589700 4.003267 17.565321 5.781007
241 0 1 -1.179400 13.963583 13.264281 9.569271
242 0 2 0.589700 13.969588 13.376795 10.514286
243 0 2 0.589700 13.286465 13.862984 9.262839
244 0 1 -1.179400 10.027270 10.642212 15.997836
245 0 2 0.589700 9.805079 11.496969 16.364092
246 0 2 0.589700 9.256814 10.102360 16.157040
247 0 1 -1.179400 5.071371 21.237080 4.772544
248 0 2 0.589700 4.277197 21.721539 4.983292
249 0 2 0.589700 4.938850 20.937120 3.878599
250 0 1 -1.179400 15.951722 23.020269 15.812230
251 0 2 0.589700 16.070179 22.801983 14.893264
252 0 2 0.589700 15.868327 23.973663 15.824723
253 0 1 -1.179400 3.242166 6.776799 1.741125
254 0 2 0.589700 3.215874 6.659438 0.797039
255 0 2 0.589700 2.501966 6.269460 2.064530
256 0 1 -1.179400 2.401163 9.216485 9.966425
257 0 2 0.589700 2.728128 8.345179 9.746168
258 0 2 0.589700 3.058899 9.816914 9.623402
259 0 1 -1.179400 0.747112 10.559320 13.685784
260 0 2 0.589700 18.032280 10.179131 13.350502
261 0 2 0.589700 0.654785 10.517178 14.632007
262 0 1 -1.179400 16.934671 6.428148 20.824600
263 0 2 0.589700 17.663477 5.947707 20.440462
264 0 2 0.589700 16.888548 7.240712 20.323790
265 0 1 -1.179400 7.076210 22.341627 1.362345
266 0 2 0.589700 7.432917 23.226032 1.436458
267 0 2 0.589700 7.718119 21.783958 1.794936
268 0 1 -1.179400 7.543115 16.889585 12.291163
269 0 2 0.589700 7.285853 16.715141 11.391445
270 0 2 0.589700 7.562442 16.027081 12.703313
271 0 1 -1.179400 12.557225 1.498987 19.799158
272 0 2 0.589700 13.416597 1.728894 20.140654
273 0 2 0.589700 11.952162 2.056043 20.282528
274 0 1 -1.179400 5.665046 2.878903 8.798824
275 0 2 0.589700 5.814668 2.836359 7.859953
276 0 2 0.589700 6.317141 2.289757 9.170715
277 0 1 -1.179400 5.638025 5.047133 16.980476
278 0 2 0.589700 5.577312 4.138152 16.688616
279 0 2 0.589700 4.757580 5.395373 16.869036
280 0 1 -1.179400 11.939658 8.890969 17.127062
281 0 2 0.589700 12.006313 8.975746 18.072609
282 0 2 0.589700 11.241565 9.494172 16.882570
283 0 1 -1.179400 9.812930 10.412119 8.322137
284 0 2 0.589700 9.954535 11.305777 8.632225
285 0 2 0.589700 10.410016 9.877936 8.839705
286 0 1 -1.179400 9.977545 10.597535 20.504961
287 0 2 0.589700 9.133843 10.241210 20.240435
288 0 2 0.589700 9.900682 11.539366 20.353745
289 0 1 -1.179400 3.600257 0.806117 17.051826
290 0 2 0.589700 3.518446 0.653179 17.987671
291 0 2 0.589700 2.830614 1.322371 16.825491
292 0 1 -1.179400 3.122799 17.317524 2.665635
293 0 2 0.589700 3.017644 16.402384 2.407331
294 0 2 0.589700 3.199157 17.288933 3.613777
295 0 1 -1.179400 7.556813 14.396815 13.318578
296 0 2 0.589700 7.464746 14.240899 14.252984
297 0 2 0.589700 8.415998 14.045096 13.102024
298 0 1 -1.179400 10.232389 5.340443 2.177529
299 0 2 0.589700 10.995738 5.874040 1.970507
300 0 2 0.589700 10.225238 5.293349 3.127977
301 0 1 -1.179400 9.310920 17.880455 6.202211
302 0 2 0.589700 9.348104 18.767159 5.845814
303 0 2 0.589700 10.064919 17.435757 5.824090
304 0 1 -1.179400 14.421125 18.725540 1.554065
305 0 2 0.589700 14.541228 18.638378 0.614012
306 0 2 0.589700 14.611659 19.645418 1.735568
307 0 1 -1.179400 7.099802 16.588186 5.358933
308 0 2 0.589700 7.167377 16.732523 4.420609
309 0 2 0.589700 7.918437 16.926317 5.711133
310 0 1 -1.179400 14.305446 18.839537 13.320607
311 0 2 0.589700 14.134368 19.718981 12.986128
312 0 2 0.589700 13.545031 18.327541 13.056708
313 0 1 -1.179400 12.256444 6.600915 8.391826
314 0 2 0.589700 11.415150 6.332735 8.750216
315 0 2 0.589700 12.885679 6.004588 8.790703
316 0 1 -1.179400 7.652227 14.336740 20.621895
317 0 2 0.589700 7.402324 14.308983 21.539793
318 0 2 0.589700 7.605901 15.263784 20.389666
319 0 1 -1.179400 9.204981 18.147640 1.347301
320 0 2 0.589700 9.874463 18.079407 2.021003
321 0 2 0.589700 8.485570 17.610332 1.669666
322 0 1 -1.179400 6.984978 22.364820 15.975117
323 0 2 0.589700 7.158894 22.066967 15.087575
324 0 2 0.589700 7.751174 22.091684 16.471321
325 0 1 -1.179400 16.687639 6.678895 16.042473
326 0 2 0.589700 16.555883 6.590061 15.104138
327 0 2 0.589700 16.047523 6.086412 16.429565
328 0 1 -1.179400 11.421525 22.444260 8.131800
329 0 2 0.589700 11.281413 23.372118 8.318880
330 0 2 0.589700 11.556113 22.409246 7.190355
331 0 1 -1.179400 3.128170 6.624598 13.780315
332 0 2 0.589700 3.234110 7.539077 13.520026
333 0 2 0.589700 3.922935 6.193341 13.477599
334 0 1 -1.179400 0.651253 21.531986 17.400831
335 0 2 0.589700 18.020939 21.913347 16.910370
336 0 2 0.589700 1.423912 21.989014 17.079006
337 0 1 -1.179400 16.151110 8.862890 9.797989
338 0 2 0.589700 16.870434 9.323642 9.374223
339 0 2 0.589700 15.379261 9.380976 9.583602
340 0 1 -1.179400 0.559923 18.758121 6.205973
341 0 2 0.589700 1.439176 18.504808 5.939597
342 0 2 0.589700 0.545827 18.614677 7.146747
343 0 1 -1.179400 0.680805 18.703238 1.721819
344 0 2 0.589700 1.449522 18.192036 1.962202
345 0 2 0.589700 0.555786 18.522289 0.795729
346 0 1 -1.179400 13.787013 18.574734 5.905096
347 0 2 0.589700 14.614904 18.142870 5.711454
348 0 2 0.589700 13.123080 17.939266 5.646858
349 0 1 -1.179400 2.697848 22.721806 16.051525
350 0 2 0.589700 2.492460 22.636124 15.126181
351 0 2 0.589700 3.384069 22.075764 16.204081
352 0 1 -1.179400 15.759878 22.414883 6.089265
353 0 2 0.589700 16.540689 22.109083 5.636524
354 0 2 0.589700 15.981858 22.354816 7.012779
355 0 1 -1.179400 7.803732 1.394316 9.690872
356 0 2 0.589700 7.692339 0.491317 9.395582
357 0 2 0.589700 7.659763 1.355666 10.630788
358 0 1 -1.179400 10.508038 2.641222 20.904076
359 0 2 0.589700 10.450537 3.535403 20.569506
360 0 2 0.589700 9.708014 2.218549 20.603216
361 0 1 -1.179400 5.396699 10.529131 20.541435
362 0 2 0.589700 5.247209 11.431721 20.262135
363 0 2 0.589700 5.352895 10.564712 21.491400
364 0 1 -1.179400 0.728534 5.645416 12.519262
365 0 2 0.589700 0.709921 4.774601 12.913798
366 0 2 0.589700 1.421981 6.106918 12.983316
367 0 1 -1.179400 14.876740 2.392620 21.104630
368 0 2 0.589700 14.892749 3.310588 20.835604
369 0 2 0.589700 14.797215 2.424793 0.003420
370 0 1 -1.179400 13.824927 18.728601 8.803170
371 0 2 0.589700 13.790960 18.506983 7.878020
372 0 2 0.589700 14.390759 18.061586 9.185809
373 0 1 -1.179400 0.775625 13.431044 2.639887
374 0 2 0.589700 0.884216 13.327173 3.579658
375 0 2 0.589700 18.006931 13.828111 2.540949
376 0 1 -1.179400 7.080414 14.053142 8.863377
377 0 2 0.589700 6.155499 13.913073 9.044504
378 0 2 0.589700 7.173715 13.858476 7.936307
379 0 1 -1.179400 18.002609 21.262045 12.334193
380 0 2 0.589700 18.048496 20.391203 12.726443
381 0 2 0.589700 0.666413 21.725538 12.684254
382 0 1 -1.179400 2.240700 17.239683 9.472648
383 0 2 0.589700 3.087948 17.639122 9.294344
384 0 2 0.589700 2.361993 16.312799 9.268462
385 0 1 -1.179400 5.313369 18.669752 6.295335
386 0 2 0.589700 5.990493 18.076946 5.977812
387 0 2 0.589700 5.344406 19.415682 5.699827
388 0 1 -1.179400 9.425381 18.096819 20.574156
389 0 2 0.589700 9.251428 18.120539 21.509493
390 0 2 0.589700 9.700413 18.987577 20.360104
391 0 1 -1.179400 12.516401 6.819934 5.749759
392 0 2 0.589700 12.673719 6.916101 6.683445
393 0 2 0.589700 13.264666 6.321252 5.431585
394 0 1 -1.179400 1.032388 10.823483 21.059519
395 0 2 0.589700 0.266196 10.317722 20.800453
396 0 2 0.589700 0.936586 10.936982 21.999577
397 0 1 -1.179400 9.142491 20.812712 2.343516
398 0 2 0.589700 9.132273 19.955338 1.920598
399 0 2 0.589700 9.915096 21.246887 1.991685
400 0 1 -1.179400 14.209745 13.258080 12.439273
401 0 2 0.589700 14.948383 13.722022 12.824725
402 0 2 0.589700 14.262611 12.374252 12.800727
403 0 1 -1.179400 17.977167 18.440104 8.861448
404 0 2 0.589700 0.650067 18.037027 9.262061
405 0 2 0.589700 17.950798 19.324459 9.224509
406 0 1 -1.179400 16.937998 1.301500 2.776809
407 0 2 0.589700 16.978085 0.420090 2.407958
408 0 2 0.589700 16.085848 1.635651 2.510682
409 0 1 -1.179400 11.388529 22.771908 16.305580
410 0 2 0.589700 11.482814 23.690800 16.554743
411 0 2 0.589700 12.228946 22.376024 16.520254
412 0 1 -1.179400 0.035616 21.413074 5.022608
413 0 2 0.589700 0.249916 21.252949 4.109131
414 0 2 0.589700 0.157640 20.565023 5.446670
415 0 1 -1.179400 7.706316 6.270847 1.351495
416 0 2 0.589700 7.173715 5.619143 1.801810
417 0 2 0.589700 8.602260 6.051898 1.591154
418 0 1 -1.179400 10.085241 2.679288 5.610415
419 0 2 0.589700 9.327695 2.199730 5.285185
420 0 2 0.589700 10.150907 3.443817 5.041630
421 0 1 -1.179400 12.179245 6.817597 13.091087
422 0 2 0.589700 12.379155 7.738946 12.927952
423 0 2 0.589700 12.287527 6.712912 14.030806
424 0 1 -1.179400 12.916912 24.739542 0.535516
425 0 2 0.589700 13.280463 25.169151 1.304485
426 0 2 0.589700 12.029013 25.080536 0.470696
427 0 1 -1.179400 5.173399 13.112389 12.700929
428 0 2 0.589700 5.274529 12.185768 12.916925
429 0 2 0.589700 6.064238 13.449960 12.665178
430 0 1 -1.179400 16.199186 17.070662 12.385634
431 0 2 0.589700 15.452516 17.579376 12.691608
432 0 2 0.589700 16.953524 17.626213 12.566907
433 0 1 -1.179400 5.376998 21.132277 19.592396
434 0 2 0.589700 5.135604 20.400301 20.156172
435 0 2 0.589700 4.829483 21.857557 19.886631
436 0 1 -1.179400 14.562430 2.774891 5.979203
437 0 2 0.589700 14.701089 2.915359 6.910286
438 0 2 0.589700 15.319541 2.266943 5.698618
439 0 1 -1.179400 16.399849 1.586792 12.772323
440 0 2 0.589700 16.609169 0.725030 13.129817
441 0 2 0.589700 15.550337 1.802046 13.146315
442 0 1 -1.179400 12.026536 9.174193 9.579346
443 0 2 0.589700 12.769243 9.732153 9.361208
444 0 2 0.589700 12.107753 8.422596 8.995719
445 0 1 -1.179400 0.750165 10.638632 16.553837
446 0 2 0.589700 0.572026 11.507038 16.912275
447 0 2 0.589700 18.082233 10.115773 16.795534
448 0 1 -1.179400 7.219381 16.578819 2.459592
449 0 2 0.589700 7.079124 15.756655 1.992908
450 0 2 0.589700 6.620054 17.197437 2.048507
451 0 1 -1.179400 0.510364 13.459042 20.162252
452 0 2 0.589700 0.555899 12.569434 20.510426
453 0 2 0.589700 17.727211 13.760960 20.386930
454 0 1 -1.179400 4.573015 12.954689 10.028368
455 0 2 0.589700 4.743344 13.024564 10.962087
456 0 2 0.589700 4.736397 12.034501 9.823532
457 0 1 -1.179400 5.350774 2.760407 13.693718
458 0 2 0.589700 6.200528 2.491857 13.356111
459 0 2 0.589700 4.734068 2.515313 13.010481
460 0 1 -1.179400 10.128558 5.148786 19.827482
461 0 2 0.589700 10.188347 5.258246 18.883984
462 0 2 0.589700 9.510737 5.821351 20.106205
463 0 1 -1.179400 15.967322 45.394684 18.657505
464 0 2 0.589700 16.280991 45.926434 19.384104
465 0 2 0.589700 16.503527 45.665314 17.918327
466 0 1 -1.179400 0.602180 2.970559 13.419130
467 0 2 0.589700 17.780987 2.727306 13.300026
468 0 2 0.589700 0.778124 2.792901 14.337564
469 0 1 -1.179400 12.005817 17.616722 17.100122
470 0 2 0.589700 11.276608 18.039700 16.654827
471 0 2 0.589700 12.781439 18.032934 16.733747
472 0 1 -1.179400 5.096266 18.249626 15.880711
473 0 2 0.589700 4.922713 19.088013 16.305855
474 0 2 0.589700 4.908006 18.408018 14.961231
475 0 1 -1.179400 7.848850 8.884640 12.594313
476 0 2 0.589700 7.000225 9.246621 12.834432
477 0 2 0.589700 7.739773 7.937322 12.675840
478 0 1 -1.179400 7.074460 14.187108 1.122196
479 0 2 0.589700 7.913653 13.933402 1.495595
480 0 2 0.589700 6.444638 13.597856 1.530435
481 0 1 -1.179400 9.164556 18.578220 16.291248
482 0 2 0.589700 9.308438 18.301178 15.391761
483 0 2 0.589700 8.987721 19.516703 16.229729
484 0 1 -1.179400 14.440528 10.796293 13.598321
485 0 2 0.589700 13.731299 10.327269 13.166627
486 0 2 0.589700 15.232638 10.363464 13.290918
487 0 1 -1.179400 2.954666 1.127086 5.796675
488 0 2 0.589700 2.241118 1.754776 5.887345
489 0 2 0.589700 3.064424 1.024400 4.856908
490 0 1 -1.179400 11.506787 22.698038 13.440177
491 0 2 0.589700 10.748545 22.132607 13.313580
492 0 2 0.589700 11.476801 22.936193 14.361394
493 0 1 -1.179400 7.854852 1.374334 2.382535
494 0 2 0.589700 7.046560 1.683818 1.983578
495 0 2 0.589700 8.531219 1.940595 2.018847
496 0 1 -1.179400 7.639510 22.313938 20.618711
497 0 2 0.589700 6.949904 21.908436 20.100397
498 0 2 0.589700 7.382796 22.153923 21.521235
499 0 1 -1.179400 0.589827 17.988619 20.932016
500 0 2 0.589700 18.000734 17.401407 20.613863
501 0 2 0.589700 1.377746 17.706474 20.476387
502 0 1 -1.179400 0.179884 18.724112 13.183691
503 0 2 0.589700 0.887352 18.250454 12.754118
504 0 2 0.589700 0.335200 18.590414 14.113135
505 0 1 -1.179400 14.430326 5.268727 17.076199
506 0 2 0.589700 14.645795 4.373068 16.818707
507 0 2 0.589700 14.463253 5.256592 18.027185
508 0 1 -1.179400 13.820689 21.561743 12.439991
509 0 2 0.589700 12.997319 21.773430 12.870118
510 0 2 0.589700 13.585782 21.431574 11.526863
511 0 1 -1.179400 9.739940 18.227985 13.713335
512 0 2 0.589700 8.975038 17.831581 13.305157
513 0 2 0.589700 9.701556 19.149000 13.457172
514 0 1 -1.179400 14.631525 2.319716 8.807407
515 0 2 0.589700 15.202871 1.569264 8.959909
516 0 2 0.589700 13.790009 2.053015 9.166364
517 0 1 -1.179400 7.667817 14.055917 6.050566
518 0 2 0.589700 7.471061 14.909454 5.667386
519 0 2 0.589700 8.356994 13.696653 5.499026
520 0 1 -1.179400 7.874256 6.747182 16.118738
521 0 2 0.589700 7.066096 6.395021 16.481323
522 0 2 0.589700 7.852332 7.678369 16.337803
523 0 1 -1.179400 16.986305 8.870131 5.141070
524 0 2 0.589700 17.722841 9.405090 5.426618
525 0 2 0.589700 17.084097 8.047522 5.617682
526 0 1 -1.179400 7.510993 7.193546 8.452267
527 0 2 0.589700 7.494254 7.948188 9.037404
528 0 2 0.589700 8.290730 6.706808 8.707007
529 0 1 -1.179400 12.593410 9.414245 12.316947
530 0 2 0.589700 11.690815 9.673682 12.479270
531 0 2 0.589700 12.635511 9.271779 11.376858
532 0 1 -1.179400 13.826690 21.156385 4.635346
533 0 2 0.589700 14.429493 21.406115 5.329219
534 0 2 0.589700 13.705048 20.213951 4.748830
535 0 1 -1.179400 16.489067 22.388107 20.739506
536 0 2 0.589700 17.338297 21.968315 20.630192
537 0 2 0.589700 16.455275 23.047716 20.050753
538 0 1 -1.179400 12.260405 6.478035 15.769053
539 0 2 0.589700 12.158995 7.359235 16.126493
540 0 2 0.589700 13.089437 6.168448 16.122927
541 0 1 -1.179400 17.000397 6.249156 6.183741
542 0 2 0.589700 16.165909 5.991188 5.802783
543 0 2 0.589700 16.813808 6.365198 7.109784
544 0 1 -1.179400 14.311376 5.074840 9.323835
545 0 2 0.589700 14.258112 4.135562 9.498952
546 0 2 0.589700 15.242541 5.245596 9.215164
547 0 1 -1.179400 13.868318 13.029384 17.304630
548 0 2 0.589700 14.665492 13.385067 16.921751
549 0 2 0.589700 13.946222 12.082443 17.189886
550 0 1 -1.179400 0.864582 10.492731 6.263269
551 0 2 0.589700 0.449199 10.292132 7.096156
552 0 2 0.589700 0.827684 11.447012 6.199497
553 0 1 -1.179400 4.703537 21.154848 9.768806
554 0 2 0.589700 5.545266 21.483540 9.465472
555 0 2 0.589700 4.527903 20.395050 9.217283
556 0 1 -1.179400 3.045829 14.602531 1.713246
557 0 2 0.589700 2.145988 14.365706 1.919167
558 0 2 0.589700 3.122902 14.452870 0.776480
559 0 1 -1.179400 11.778480 14.954564 1.642189
560 0 2 0.589700 12.560028 14.495422 1.938633
561 0 2 0.589700 11.906690 15.063211 0.705420
562 0 1 -1.179400 16.210024 17.249311 5.282568
563 0 2 0.589700 16.961241 17.672716 5.689298
564 0 2 0.589700 16.412361 17.248228 4.352643
565 0 1 -1.179400 9.563739 20.598906 12.490842
566 0 2 0.589700 9.682322 20.779917 11.563921
567 0 2 0.589700 8.669016 20.871376 12.674202
568 0 1 -1.179400 3.842233 0.710831 19.853745
569 0 2 0.589700 3.167150 1.022820 20.449352
570 0 2 0.589700 4.055644 45.635155 20.168234
571 0 1 -1.179400 0.717395 5.011445 16.951643
572 0 2 0.589700 1.535932 5.483787 16.822506
573 0 2 0.589700 0.053193 5.581825 16.572283
574 0 1 -1.179400 16.862875 9.188268 19.933624
575 0 2 0.589700 16.035284 9.584175 20.193272
576 0 2 0.589700 16.868895 9.250810 18.984045
577 0 1 -1.179400 5.141009 10.488599 6.285034
578 0 2 0.589700 5.734009 10.158220 5.616520
579 0 2 0.589700 5.058529 11.422864 6.095283
580 0 1 -1.179400 4.949901 10.442704 9.152507
581 0 2 0.589700 5.717352 9.985424 9.486191
582 0 2 0.589700 4.992805 10.321545 8.209504
583 0 1 -1.179400 2.799655 17.089666 17.053322
584 0 2 0.589700 2.673214 16.170195 16.821060
585 0 2 0.589700 3.633486 17.325089 16.656815
586 0 1 -1.179400 13.753859 21.566936 9.524111
587 0 2 0.589700 13.066109 21.954153 8.989758
588 0 2 0.589700 13.716773 20.631392 9.326490
589 0 1 -1.179400 9.259817 20.610600 5.147524
590 0 2 0.589700 9.859359 21.352577 5.200637
591 0 2 0.589700 8.955371 20.614597 4.245792
592 0 1 -1.179400 7.696809 1.776855 12.933458
593 0 2 0.589700 7.609160 1.033372 13.526359
594 0 2 0.589700 8.478322 2.234222 13.232692
595 0 1 -1.179400 1.126624 5.138482 2.555493
596 0 2 0.589700 0.460612 5.641372 2.093851
597 0 2 0.589700 0.954800 5.307258 3.476355
598 0 1 -1.179400 10.554414 2.820774 16.187775
599 0 2 0.589700 9.801290 2.387950 16.580959
600 0 2 0.589700 10.531072 3.711603 16.535065
601 0 1 -1.179400 5.089885 18.499798 20.473204
602 0 2 0.589700 5.075181 18.270376 21.396978
603 0 2 0.589700 5.740302 17.913609 20.093842
604 0 1 -1.179400 2.300871 17.116106 12.391597
605 0 2 0.589700 2.475038 17.189751 11.458870
606 0 2 0.589700 2.486875 16.200665 12.598225
607 0 1 -1.179400 14.002729 3.020752 13.397201
608 0 2 0.589700 14.108728 3.847241 12.929049
609 0 2 0.589700 13.104304 2.757118 13.219194
610 0 1 -1.179400 7.175715 16.988995 17.015039
611 0 2 0.589700 6.381785 17.411135 16.697786
612 0 2 0.589700 7.878113 17.580643 16.755402
613 0 1 -1.179400 16.122366 14.287279 21.237091
614 0 2 0.589700 16.116455 14.425957 0.129684
615 0 2 0.589700 16.241167 15.161973 20.869352
616 0 1 -1.179400 9.295406 21.298012 16.942152
617 0 2 0.589700 9.564569 21.066050 17.825407
618 0 2 0.589700 9.985279 21.876287 16.625490
619 0 1 -1.179400 16.125509 22.946125 12.958541
620 0 2 0.589700 15.270458 22.557484 12.794376
621 0 2 0.589700 16.744894 22.316801 12.596054
622 0 1 -1.179400 16.684296 6.220656 9.062139
623 0 2 0.589700 17.526003 5.968808 9.431119
624 0 2 0.589700 16.496044 7.073666 9.450715
625 0 1 -1.179400 2.735180 8.938764 17.194777
626 0 2 0.589700 2.871111 9.102865 18.122433
627 0 2 0.589700 1.964885 9.455705 16.972223
628 0 1 -1.179400 16.439262 14.314993 13.249284
629 0 2 0.589700 16.530104 15.203872 12.908182
630 0 2 0.589700 17.171423 13.834474 12.871661
631 0 1 -1.179400 11.825128 14.822964 16.276525
632 0 2 0.589700 11.829090 15.761403 16.463736
633 0 2 0.589700 12.566510 14.476464 16.764996
634 0 1 -1.179400 14.714994 10.276709 6.210583
635 0 2 0.589700 15.555346 9.908829 5.951082
636 0 2 0.589700 14.706169 11.153322 5.828599
637 0 1 -1.179400 0.671636 13.027314 12.448088
638 0 2 0.589700 0.787237 12.154689 12.821653
639 0 2 0.589700 1.379697 13.546596 12.820783
640 0 1 -1.179400 12.061083 14.477713 5.776881
641 0 2 0.589700 12.022250 14.532941 6.726134
642 0 2 0.589700 11.348112 13.888163 5.542501
643 0 1 -1.179400 11.606949 17.200293 4.963925
644 0 2 0.589700 11.920749 16.325474 5.189453
645 0 2 0.589700 11.771073 17.278631 4.029763
646 0 1 -1.179400 0.875835 4.731154 19.819572
647 0 2 0.589700 1.725535 5.113245 20.022167