LAMMPS data file via write_data, version 29 Sep 2021, timestep = 400000

972 atoms
2 atom types

-0.09370590228313702 20.08475890228327 xlo xhi
-0.0911056088767328 20.08215860887644 ylo yhi
0.13283944508395962 20.66793255491561 zlo zhi

Masses

1 1.008
2 15.999

Atoms # full

2 0 2 0 1.7792480444374452 2.3775967163176257 0.7624217323824086 0 0 0
31 0 1 0 0.4539810418264565 2.0411164298682203 2.1268987916723656 0 0 0
32 0 2 0 0.49634728371475434 1.0699719845364788 2.3372989929715917 0 0 0
33 0 2 0 0.8206214641771084 2.4475426141860535 2.9363467974385116 0 0 0
5 0 2 0 3.3188555804427393 0.6880206615365336 4.211431203539472 0 0 0
1 0 1 0 2.5175785973892273 2.4549634792021378 0.14468484046287644 0 0 0
10 0 1 0 1.4149411387189432 3.7638702543277387 3.842991995473183 0 0 0
12 0 2 0 2.3913341536689794 3.809258727682367 3.870548606848508 0 0 0
18 0 2 0 4.126506607470654 2.9411953244629774 3.0468074550931172 0 0 0
4 0 1 0 3.9475073340773807 1.0721708389958948 3.5567717866693287 0 0 0
35 0 2 0 4.139926166319323 2.6281842763964915 0.6904836341159487 0 0 0
6 0 2 0 4.796546546450755 0.9326749077543559 3.9907110551657072 0 0 0
36 0 2 0 5.514036308341019 2.387883378583078 1.3924182293478673 0 0 0
67 0 1 0 7.36294702746326 2.2163439436923564 1.9805908305013333 0 0 0
68 0 2 0 7.583717010130804 2.8210572874057513 2.7123103329984706 0 0 0
34 0 1 0 5.1195049832815736 2.6194553681530945 0.5674250642003213 0 0 0
272 0 2 0 7.106067164575451 0.525563702805284 1.9274361910871536 0 1 0
16 0 1 0 4.026158841161491 3.901667296481382 3.276764536365471 0 0 0
69 0 2 0 8.119321061215869 2.270604888735788 1.3284829042629644 0 0 0
40 0 1 0 11.028671799212665 1.1448839975094693 3.2644554728545154 0 0 0
54 0 2 0 11.01586698082538 2.9188126929821134 3.4281878632216323 0 0 0
41 0 2 0 10.280975534196669 0.8906529471950484 3.8236798959807077 0 0 0
42 0 2 0 11.795127720338185 0.751975554241279 3.8233239679993876 0 0 0
52 0 1 0 10.89891020502373 3.8982298184132715 3.5809370221524444 0 0 0
70 0 1 0 11.83142149604251 2.7943742455456584 0.5390541855635798 0 0 0
47 0 2 0 9.111099748433016 3.8743136505654636 3.935191368308602 0 0 0
72 0 2 0 12.366256588566838 2.477377696915474 1.3037980949366015 0 0 0
103 0 1 0 13.994748126283552 1.9008484578121423 2.2411504834304528 0 0 0
105 0 2 0 14.20217806622854 0.9741201866753855 2.3777996026116233 0 0 0
84 0 2 0 14.705278239100629 3.3360540695680654 3.42266539060254 0 0 0
104 0 2 0 14.741753176754598 2.1374039782572165 1.6689687180967752 0 0 0
73 0 1 0 15.834221862961195 2.9112032922866247 0.31953120381601774 0 0 0
75 0 2 0 15.740193141915332 3.872785732640362 0.13662855515009298 0 0 0
76 0 1 0 17.775347110181094 0.9581198736142438 3.6304685022557828 0 0 0
77 0 2 0 17.728060109713834 0.675404455387732 2.6999737212877246 0 0 0
108 0 2 0 19.00703401229468 2.113975920923248 1.3402810672526608 0 0 0
89 0 2 0 17.67840993988008 2.692993801847459 3.9074393053987286 0 0 0
107 0 2 0 17.651052763012082 2.3761348228767156 0.579523615238456 0 0 0
106 0 1 0 18.555966801385313 2.034347321595587 0.5008886092458642 0 0 0
78 0 2 0 18.607010551479622 0.6613500725667588 4.109480862825253 0 0 0
88 0 1 0 17.692297867348284 3.680714833806011 4.022749142283306 0 0 0
20 0 2 0 1.020470038293974 5.048171041228575 2.5465016038665507 0 0 0
19 0 1 0 0.7476266639349161 5.548189621402502 1.774353320565402 0 0 0
21 0 2 0 0.8179075785558745 6.499764482756365 1.8908926333585994 0 0 0
675 0 2 0 1.7554147831890077 5.0588096238358675 0.48217166899168745 0 0 1
131 0 2 0 2.7665962216747184 7.514811425604973 4.1929267838407425 0 0 0
14 0 2 0 4.223646010363759 5.599046999023736 0.6503191140116886 0 0 0
17 0 2 0 4.199249660564345 4.350118647384324 2.444970341066004 0 0 0
13 0 1 0 4.5923871154727225 5.899680675170329 1.5304091005913867 0 0 0
15 0 2 0 5.562056324441991 5.94030217199262 1.5021306577593854 0 0 0
55 0 1 0 7.316695012909437 5.947057994104924 1.959844669492882 0 0 0
56 0 2 0 7.617855567272096 5.350743856931973 2.7164298777021143 0 0 0
177 0 2 0 7.540627797703843 7.704678244987657 2.3675352850631266 0 0 0
113 0 2 0 4.890993300629298 7.9386283922462955 3.758814574174809 0 0 0
57 0 2 0 7.880357938489402 5.664471177120799 1.1985672776830842 0 0 0
114 0 2 0 4.149912754202461 7.31044150144552 2.6085084651113344 0 0 0
46 0 1 0 8.151461952033094 3.951714589160953 3.79175817033829 0 0 0
51 0 2 0 11.129411459888772 5.170876900925414 2.285182698055251 0 0 0
49 0 1 0 11.395838015807636 5.861661860175564 1.6390947498540551 0 0 0
50 0 2 0 10.810762724351545 5.693581728458495 0.8552637153790464 0 0 0
150 0 2 0 11.016375154283795 7.2164699237871845 2.5714929338202452 0 0 0
149 0 2 0 10.259121297427615 7.72669692560543 3.9166054915658957 0 0 0
148 0 1 0 11.0484947375535 7.838308712293013 3.3908555195170402 0 0 0
83 0 2 0 14.793213780188022 4.884011997187898 3.283006820278677 0 0 0
91 0 1 0 14.044412513549574 5.792034362505437 2.2404372831603427 0 0 0
92 0 2 0 14.127960075842724 6.733729829628705 2.0158712380293196 0 0 0
93 0 2 0 13.131765567641546 5.516844472296264 1.974859221456568 0 0 0
747 0 2 0 14.984919473695747 5.580615542397641 0.7789096910934485 0 0 1
82 0 1 0 14.911000644924316 4.148765075443775 3.95646682246715 0 0 0
745 0 1 0 15.838096958255484 5.611504017798524 0.2670822491838966 0 0 1
90 0 2 0 16.777504756345714 3.9478685123706754 4.214430563813812 0 0 0
86 0 2 0 18.06951235274842 5.110625122293312 2.747719263745276 0 0 0
85 0 1 0 18.271346862019968 5.765301626644811 2.0593309126672 0 0 0
87 0 2 0 19.20595760587848 5.619176921520308 1.7579309505160525 0 0 0
185 0 2 0 18.009759026496734 7.721286451192597 2.860160158713843 0 0 0
746 0 2 0 16.60348777001288 5.740980607677407 0.948516767949548 0 0 1
139 0 1 0 0.7996767878273697 8.348617340519617 1.9370231766222437 0 0 0
141 0 2 0 1.5512673173905296 8.632896882217251 1.424168876978956 0 0 0
119 0 2 0 0.9162577054990673 9.519400126981827 3.041857918854985 0 0 0
120 0 2 0 2.027729233672143 10.379415054904147 3.6925805980104007 0 0 0
118 0 1 0 1.062944044543653 10.294217262915371 3.6367099794084408 0 0 0
140 0 2 0 0.02509412564858346 8.498583195395616 1.3832510912669753 0 0 0
124 0 1 0 3.8186825498197803 10.564230510875202 3.367437213617298 0 0 0
129 0 2 0 0.60326211153421 11.677978857435582 2.6124285062452057 0 0 0
782 0 2 0 1.5384442008611796 11.987689631150573 0.6158179138669924 0 0 1
110 0 2 0 3.679132035254063 9.054843029771275 0.1719544126558189 0 0 0
109 0 1 0 2.7337326796529005 9.164440069620698 0.13922149105283363 0 0 0
112 0 1 0 4.08298960517947 8.002008323058606 3.2199538252411193 0 0 0
126 0 2 0 4.117067386211105 9.69593111041603 3.052608551367674 0 0 0
176 0 2 0 6.810712897458594 8.873193964928278 1.715692007125975 0 0 0
175 0 1 0 7.58910712613966 8.640781409832142 2.2677679519843577 0 0 0
155 0 2 0 7.633097553833571 10.118340634405513 3.617539797036312 0 0 0
142 0 1 0 5.58486674685435 9.228865155855758 0.42683089341320557 0 0 0
156 0 2 0 7.812479225195051 11.618893743866506 3.299104674034617 0 0 0
122 0 2 0 4.222582176006785 11.705862252470414 2.3035561698289118 0 0 0
154 0 1 0 7.877707096623425 10.922291945011185 4.030252515816541 0 0 0
125 0 2 0 4.477606216716999 10.781955763078344 4.121325428806157 0 0 0
147 0 2 0 9.037994849512982 9.161458507133972 0.9911073301045746 0 0 0
162 0 2 0 10.819213678946717 9.622600355215564 3.125908566155085 0 0 0
179 0 2 0 11.05515511790743 9.046744237274059 0.3737173096256411 0 0 0
161 0 2 0 9.752107820038667 10.52011213991691 3.673385229832715 0 0 0
160 0 1 0 10.540926941596954 10.587186940928277 3.13319120296141 0 0 0
178 0 1 0 12.005875464026497 9.048510600713117 0.4461512536765668 0 0 0
158 0 2 0 11.005957692657486 11.769926622345531 2.2269493077125437 0 0 0
211 0 1 0 14.199751327219719 8.697585087816593 2.080102684530683 0 0 0
212 0 2 0 14.175073499581254 9.200364565506845 2.9645515107799993 0 0 0
213 0 2 0 13.287798539853954 8.818161792955337 1.654193929452047 0 0 0
183 0 2 0 15.431117059510699 9.292331128765388 0.7892095238870659 0 0 0
191 0 2 0 14.555138760494275 11.932360044191464 3.2139979064951754 0 0 0
190 0 1 0 14.629243091969379 11.09193133315273 3.681029267886738 0 0 0
192 0 2 0 15.585256292785628 10.979198809629988 3.9234890687606945 0 0 0
184 0 1 0 17.70691458644046 8.2010730270135 3.6331736611129766 0 0 0
186 0 2 0 17.707777490056134 9.123379785815002 3.397215854688581 0 0 0
196 0 1 0 17.270834899376926 10.842454723937847 3.9002284317192872 0 0 0
197 0 2 0 17.371742570633025 11.5236510717014 3.200350194091656 0 0 0
216 0 2 0 17.618594453465423 9.329995446398147 0.5993252319133222 0 0 0
214 0 1 0 18.552458587020006 9.007393752422818 0.6061471570383657 0 0 0
249 0 2 0 0.6985630557716679 14.447972397001418 2.2231480113458604 0 0 0
221 0 2 0 3.0014506880214076 14.485291659799817 3.6932413662246057 0 0 0
247 0 1 0 0.6496594487268963 15.380679734560939 2.097092972521434 0 0 0
218 0 2 0 2.110288680529201 15.61018375062492 0.8804529191091153 0 0 0
127 0 1 0 0.41690905382261034 12.4664828508183 2.030855741995473 0 0 0
220 0 1 0 3.7374430590256473 14.826790719129873 3.1501384363297067 0 0 0
248 0 2 0 -0.07672994357746228 15.673520605482448 1.5494772101433105 0 0 0
123 0 2 0 4.194296534082191 12.335172493101785 0.9821370915734888 0 0 0
121 0 1 0 4.550101317945456 12.540320762262771 1.842698477697338 0 0 0
222 0 2 0 3.9996528333227355 14.071886178389814 2.580187889991906 0 0 0
165 0 2 0 6.467772750191709 12.625271203996629 1.9099217869817835 0 0 0
163 0 1 0 7.41901129377924 12.67476904553955 2.0328916591343873 0 0 0
164 0 2 0 7.6430316931209745 13.585474919123296 2.2652184170767033 0 0 0
283 0 1 0 7.459884570918724 15.509368513407855 1.8680251083894877 0 0 0
284 0 2 0 6.6692340399319665 15.880932921959241 1.462958857007269 0 0 0
251 0 2 0 4.281844966826743 15.770711251663938 0.36632553760425934 0 0 0
250 0 1 0 5.216469285086759 15.882792699592232 0.3789499751656481 0 0 0
818 0 2 0 9.986038315913737 12.152737771967859 0.45204048215034154 0 0 1
819 0 2 0 8.472421866602907 12.14842641018852 0.579407959410027 0 0 1
285 0 2 0 8.207841081026194 15.843109357873253 1.3395941736091288 0 0 0
258 0 2 0 9.73326998096626 14.75476529574195 3.7679596527466157 0 0 0
157 0 1 0 11.364812602079008 12.578635669145013 1.7660885564558049 0 0 0
159 0 2 0 11.118672872468046 13.318517568721191 2.2715115124142904 0 0 0
256 0 1 0 10.692162289426191 14.803197045083595 3.541450227104012 0 0 0
257 0 2 0 10.857587180065329 15.761101202779358 3.4777674580332283 0 0 0
855 0 2 0 15.030203879527361 12.369917588349189 0.5602274209058836 0 0 1
199 0 1 0 14.002013907097885 13.115130384460594 1.8871345065532132 0 0 0
200 0 2 0 13.02688981863374 12.923167784371051 1.9140784144074101 0 0 0
201 0 2 0 14.008763860927425 14.108335074428592 1.9511051431414101 0 0 0
319 0 1 0 14.129789598881398 15.804629873376701 2.194186811071074 0 0 0
128 0 2 0 19.631826228236854 12.45191095834937 1.9450962283307474 -1 0 0
195 0 2 0 17.002818426751233 12.399778102526895 1.216859210620324 0 0 0
193 0 1 0 17.76848816944765 12.558122352965333 1.8213230332449413 0 0 0
194 0 2 0 17.59016544659749 13.422178241425724 2.175415367367556 0 0 0
294 0 2 0 16.520193583108124 14.773064236253628 3.8747468550230253 0 0 0
292 0 1 0 17.29452702192829 14.93064452289497 3.291773296124486 0 0 0
293 0 2 0 17.48916621238116 15.879820346616185 3.3831003909428197 0 0 0
322 0 1 0 18.93836632610573 15.833462394536065 0.2302965889217249 0 0 0
227 0 2 0 0.8356736089298281 16.674634879193803 3.2046587771276696 0 0 0
236 0 2 0 0.6563867083243654 18.90622760902641 2.6816014130374906 0 0 0
237 0 2 0 1.0858233862026672 19.447424846028326 1.225908225563769 0 0 0
226 0 1 0 1.0175419680961104 17.475191350272823 3.8064264811826742 0 0 0
235 0 1 0 0.4359692669024815 19.508688323645586 1.9677530556688683 0 0 0
891 0 2 0 3.471489024126982 18.800382681721416 0.3754127135025186 0 0 1
228 0 2 0 1.9715430074046498 17.39783345813906 3.884525766956538 0 0 0
232 0 1 0 3.9402895324313167 17.433241941762788 3.694442644887175 0 0 0
230 0 2 0 4.229572217505124 19.9474657615921 2.1445246727592973 0 0 0
233 0 2 0 4.063423909152215 16.53415018072016 3.3441253968206492 0 0 0
234 0 2 0 4.139788391439044 17.91928207389593 2.8963258769964453 0 0 0
229 0 1 0 4.5538880269120945 19.212148931413182 1.5950282183375202 0 0 0
231 0 2 0 5.53399287002377 19.323353536126483 1.5681068738346955 0 0 0
271 0 1 0 7.00568862377984 19.772229098336574 1.7062946301917103 0 0 0
273 0 2 0 7.376006425066191 19.314803340574905 2.4643154219414365 0 0 0
263 0 2 0 7.673939507515258 16.91356767445904 3.1537598466279113 0 0 0
262 0 1 0 7.820319227569188 17.777686932667677 3.6533231166050038 0 0 0
255 0 2 0 10.424476195934524 16.428752134651106 0.18495010726332506 0 0 0
266 0 2 0 11.116982171420204 19.845039418476908 1.8462188125357464 0 0 0
265 0 1 0 11.299241245590032 19.01989509069537 1.4241596343913585 0 0 0
267 0 2 0 10.568900230831069 19.051808807167824 0.7384525603026404 0 0 0
268 0 1 0 10.573382832774271 17.515561238946667 3.7222335713997774 0 0 0
269 0 2 0 10.865696758756092 18.000394673451204 2.943478970277898 0 0 0
927 0 2 0 8.094920764462117 18.980273212835193 0.41427310009686824 0 0 1
264 0 2 0 8.78042499136659 17.88807756209311 3.7629409065208357 0 0 0
286 0 1 0 12.23870903373122 16.546932087028786 0.42370878892288566 0 0 0
320 0 2 0 13.461808295187833 16.219807838300703 1.6571290999207964 0 0 0
291 0 2 0 15.594827718036333 16.053933176181893 1.2410255597423958 0 0 0
321 0 2 0 14.298543765586835 16.321112598104 3.0019007630609797 0 0 0
307 0 1 0 14.228575205503267 19.255858916619133 1.8433276877347526 0 0 0
308 0 2 0 13.306546654143867 19.058995763620175 1.6591004906670983 0 0 0
309 0 2 0 14.550872858862297 18.750808190628547 2.644614838601272 0 0 0
298 0 1 0 14.379046170678865 17.862634853259564 4.238845712079377 0 0 0
963 0 2 0 15.343757845394114 19.172232314707188 0.1669925085102229 0 0 1
289 0 1 0 16.098444713848046 16.32649488996897 0.4521112646595317 0 0 0
290 0 2 0 17.053100427180702 16.133644287840923 0.5722097634233041 0 0 0
301 0 1 0 17.904281069569027 19.316790924994457 1.6710892897637164 0 0 0
302 0 2 0 17.38875537515171 19.350615332660745 0.8680562661950374 0 0 0
303 0 2 0 18.85900987701847 19.37197082974251 1.4654591728716888 0 0 0
306 0 2 0 17.322430769251802 18.202211504741285 3.2763646382324696 0 0 0
304 0 1 0 17.182015298158365 17.599232256776148 4.035731961201778 0 0 0
22 0 1 0 2.2782307615844397 0.19246876982969457 5.430114143315085 0 0 0
23 0 2 0 2.558310769256528 0.7537709279487416 6.192932840672423 0 0 0
325 0 1 0 2.869782556508744 2.3167145205063213 7.028375252845725 0 0 0
326 0 2 0 3.7841042585585964 2.224083254864917 7.367619580936904 0 0 0
356 0 2 0 1.7435486329581116 1.895454093293371 8.20561067367307 0 0 0
101 0 2 0 0.535889066972738 0.4421675987635588 5.262883285097586 1 0 0
327 0 2 0 2.8315870804110186 3.185854250580708 6.587694790418651 0 0 0
28 0 1 0 5.9914957670699565 0.6023441397712054 5.389339857411949 0 0 0
29 0 2 0 6.883405941402089 0.66646861558987 4.973847858444408 0 0 0
358 0 1 0 5.508390335501227 2.2807033120556186 7.487340259854946 0 0 0
359 0 2 0 5.793654860381549 1.5503675862430957 6.926667235824742 0 0 0
360 0 2 0 6.154344967089785 2.2931325951169685 8.207854235569975 0 0 0
8 0 2 0 5.739093340242257 3.730065894016607 6.399195498536985 0 0 0
48 0 2 0 7.6379311554985305 3.91537517059278 4.632987747977551 0 0 0
58 0 1 0 8.891972391030873 0.7780686361970816 4.9898496515692825 0 0 0
59 0 2 0 9.026348675993155 1.565334410557024 5.586646371861876 0 0 0
361 0 1 0 9.553252464935435 2.70858551893491 6.891350396892875 0 0 0
363 0 2 0 9.59274353813957 3.6612739305060478 6.758753461743525 0 0 0
362 0 2 0 10.473496360018379 2.4841933398649814 7.14164207185433 0 0 0
60 0 2 0 9.061365317200643 -0.04807209513851502 5.472346873173713 0 0 0
392 0 2 0 8.441003042398448 2.193744802546275 8.102225619376568 0 0 0
394 0 1 0 12.264181974380545 2.4117130955764576 7.09417632824536 0 0 0
66 0 2 0 12.428235926788995 1.2916673242104943 5.664291951806585 0 0 0
396 0 2 0 12.644945807052784 3.253402109340624 6.8312465905895765 0 0 0
64 0 1 0 12.855286935454595 0.624081112080657 5.082690958079088 0 0 0
65 0 2 0 13.76942318581871 0.9306624259082259 4.9452655208382845 0 0 0
94 0 1 0 15.68344299350914 0.8894925801711998 5.454745336826663 0 0 0
395 0 2 0 12.782111465785523 2.0715837794833485 7.829934225142074 0 0 0
95 0 2 0 15.926060872238185 1.6132494444663672 6.051477717424116 0 0 0
96 0 2 0 16.53304198627977 0.6853570481391218 4.994359353691744 0 0 0
399 0 2 0 16.09508366513547 3.566521497027583 7.2125558472249915 0 0 0
397 0 1 0 16.151133284456904 2.6117195116917764 7.380960431802176 0 0 0
100 0 1 0 19.810780709018385 0.1216654156770017 5.39695268651023 0 0 0
398 0 2 0 17.100489502946633 2.6354478784258677 7.523630390833803 0 0 0
430 0 1 0 18.920970494997015 2.3034587162000353 7.205871069421232 0 0 0
431 0 2 0 19.13132800125052 1.5605775354540659 6.622781094150455 0 0 0
432 0 2 0 19.335778590691916 3.142074519882118 6.887164601843001 0 0 0
11 0 2 0 1.0282422182319262 3.9649340374589706 4.720548488795888 0 0 0
25 0 1 0 2.534105832633067 5.239110280188951 6.679638839409852 0 0 0
26 0 2 0 2.2087586858741153 5.928410913931947 6.098995547951813 0 0 0
130 0 1 0 2.1564603578681942 7.196504541040884 4.846436028095819 0 0 0
27 0 2 0 3.4155346557103594 5.538650178212577 6.956388422887301 0 0 0
132 0 2 0 1.2241610492416095 7.435965012396675 4.627630106861529 0 0 0
344 0 2 0 1.3906848659765345 5.442650342468336 8.22027325891734 0 0 0
9 0 2 0 5.125700914957561 3.983338684084586 4.990820131860651 0 0 0
7 0 1 0 5.763285094688428 4.318260512432271 5.622657993663384 0 0 0
136 0 1 0 5.947401969431711 7.282513095032882 5.389203104336388 0 0 0
137 0 2 0 5.812791622250152 6.343810656572311 5.492495582124072 0 0 0
138 0 2 0 6.925417987469248 7.410550917917705 5.369686990083009 0 0 0
339 0 2 0 5.754352004990528 5.944899744065798 8.316079437644927 0 0 0
337 0 1 0 4.791953535983122 5.785412309177993 8.272347640839866 0 0 0
53 0 2 0 11.543620587944801 4.175313262894596 4.3048416241322744 0 0 0
63 0 2 0 8.791655679510415 5.814468343439804 7.5187557662545315 0 0 0
61 0 1 0 9.342965906922727 5.531687158667198 6.778149597339065 0 0 0
166 0 1 0 8.760454199866869 7.618969527735108 5.194580141124357 0 0 0
167 0 2 0 8.974945296674186 6.809279416557955 5.80568470600595 0 0 0
62 0 2 0 10.251756795961196 5.787319516992848 7.111359542421601 0 0 0
204 0 2 0 15.954756007061057 7.641376224760365 4.317014065486225 0 0 0
173 0 2 0 12.40197429187635 7.338943099969134 4.660565313615919 0 0 0
44 0 2 0 13.631527083713822 4.345577422464603 5.165702023749082 0 0 0
43 0 1 0 12.78986461213276 4.452328676431711 5.646446992563351 0 0 0
45 0 2 0 12.746117521611094 5.3984379879435 5.8886687751334135 0 0 0
172 0 1 0 12.887387623342795 7.13985861086321 5.519466030845024 0 0 0
174 0 2 0 13.768556601075204 7.400066708546742 5.34189392931855 0 0 0
202 0 1 0 15.473416064461212 7.552815360757629 5.183278585722882 0 0 0
416 0 2 0 14.741551694479535 5.919595065233108 8.215572192844206 0 0 0
99 0 2 0 15.717918236766662 5.972360083694461 6.129215507160353 0 0 0
97 0 1 0 15.848454786819078 5.438727971715116 6.934020877771087 0 0 0
81 0 2 0 19.182027705016466 4.134704010051046 5.120462613417441 0 0 0
79 0 1 0 19.73133718731996 4.459128663251335 5.819211360192076 0 0 0
209 0 2 0 19.00102280789851 7.6953646182451285 4.6276832798024685 0 0 0
80 0 2 0 19.64108776315328 5.4294965764343 5.838427592207293 0 0 0
98 0 2 0 16.757318418035553 5.569737618662748 7.175707268383158 0 0 0
208 0 1 0 19.693621804773432 7.442445929703836 5.34847421483932 0 0 0
210 0 2 0 19.498275720526117 7.977120154814086 6.105458444550852 0 0 0
410 0 2 0 19.00183252451604 5.992976081396224 8.12307246857809 0 0 0
433 0 1 0 2.626528233098505 8.983614346079051 7.035412683864834 0 0 0
435 0 2 0 2.33914156506452 8.39613100340023 6.320760383230381 0 0 0
434 0 2 0 3.58194178098118 8.922862852460687 7.170476679211558 0 0 0
135 0 2 0 2.284424226169866 10.793985995028578 6.844590603732098 0 0 0
189 0 2 0 0.10705174663593042 10.85898963127293 4.9981124158447345 1 0 0
133 0 1 0 2.127641224860853 11.757439049870401 7.002350631247166 0 0 0
468 0 2 0 5.622437789865226 8.487835061989964 6.551586277800727 0 0 0
466 0 1 0 5.428242224471322 9.138017349957451 7.238636792836851 0 0 0
467 0 2 0 5.456056129390004 10.004796204986032 6.820654099686079 0 0 0
116 0 2 0 6.54756378056305 11.387126015550166 5.010034680315261 0 0 0
115 0 1 0 5.663234935988535 11.45771380080002 5.35443060045383 0 0 0
168 0 2 0 8.863259574164701 8.366988379684232 5.890789423732758 0 0 0
469 0 1 0 9.171351573330593 9.457354454207401 6.952323839943051 0 0 0
471 0 2 0 10.16070979923051 9.275928772305782 6.960546450794463 0 0 0
470 0 2 0 9.139425763850397 10.394073096563215 6.749480297640239 0 0 0
152 0 2 0 11.455346044042424 11.028861407383717 4.693213113427402 0 0 0
502 0 1 0 11.86091177013059 9.105841244836876 7.162797334259687 0 0 0
504 0 2 0 12.078917716089531 9.885089556623083 6.649454763378258 0 0 0
503 0 2 0 12.329373467026791 8.370980515613939 6.674105901721199 0 0 0
203 0 2 0 15.960403754596104 8.171565777112201 5.719090716316064 0 0 0
507 0 2 0 15.685762075347364 9.21270182582114 7.897534973964091 0 0 0
151 0 1 0 12.131854703196405 11.166943391011484 5.40653970704989 0 0 0
153 0 2 0 12.929649253118107 11.146927520659872 4.868772012722797 0 0 0
207 0 2 0 16.013006801319253 11.384367849877693 6.756826547666842 0 0 0
505 0 1 0 16.314813692659037 9.336424268521146 7.142827874149117 0 0 0
198 0 2 0 17.97250338074081 11.077307799758922 4.527446797304978 0 0 0
506 0 2 0 17.204578884085908 9.140088269583865 7.462182453114131 0 0 0
538 0 1 0 19.003890286498766 9.057333621927777 7.424480418288396 0 0 0
539 0 2 0 19.724845528632603 8.94496606730167 8.13593594393728 0 0 0
540 0 2 0 19.35916573155272 9.824411079897658 6.921926537910386 0 0 0
187 0 1 0 19.655991015941318 11.13755416340704 5.6592934060913125 0 0 0
134 0 2 0 2.944769538556016 12.237312095135977 7.206595075529715 0 0 0
239 0 2 0 0.7233851064186573 14.152589441547581 5.031979198334002 0 0 0
238 0 1 0 1.6790693491649125 13.854169758061087 5.01462618788193 0 0 0
240 0 2 0 1.7047481584936206 12.960227324846969 5.458536319436798 0 0 0
453 0 2 0 0.9805541351581839 12.60125503142532 8.18717128106178 0 0 0
542 0 2 0 2.316708734884689 14.879553784028147 6.332622261121648 0 0 0
543 0 2 0 3.508985380810619 15.592369685871075 7.185776525997817 0 0 0
541 0 1 0 2.562715763469968 15.59011124334726 6.943118918318874 0 0 0
246 0 2 0 5.162706646586498 14.51928691051429 4.530980486088235 0 0 0
117 0 2 0 5.422397274294412 12.372712303083976 5.499720934477607 0 0 0
244 0 1 0 5.770916325122883 14.3355396229265 5.277871680843833 0 0 0
276 0 2 0 7.4004136779740985 14.304494192090168 4.841481718377747 0 0 0
245 0 2 0 5.522243096773179 15.005600949799991 5.889062149078216 0 0 0
575 0 2 0 6.029481706491518 15.78427182989831 7.948586839370334 0 0 0
489 0 2 0 7.854470256779071 12.317248709040872 7.980286309036545 0 0 0
447 0 2 0 5.733141291773279 12.741851478190611 8.253696761864896 0 0 0
445 0 1 0 4.880245893943543 13.092607855096722 7.9257983026292855 0 0 0
169 0 1 0 9.101289188751695 12.257186083371773 6.6428266712830295 0 0 0
171 0 2 0 9.775944142166194 12.607488840877172 7.19505181063784 0 0 0
170 0 2 0 8.93698204505867 12.77635613026611 5.868714778446102 0 0 0
274 0 1 0 8.353907291292256 14.414135317483144 4.738582415633734 0 0 0
275 0 2 0 8.559828976932296 14.984890786108167 5.549894370183175 0 0 0
611 0 2 0 10.959039432508675 15.723723704240998 7.408755924555707 0 0 0
578 0 2 0 8.545088353741505 15.770045062970969 7.626777730017723 0 0 0
610 0 1 0 11.875272814384816 15.998519333518177 7.258694028183901 0 0 0
281 0 2 0 11.8679360775358 14.303175462056144 4.798200462059811 0 0 0
577 0 1 0 9.193291184767066 15.927553798981103 6.897562326778419 0 0 0
481 0 1 0 11.275183018232525 12.783971900050288 8.279543908687941 0 0 0
205 0 1 0 15.94075115114363 12.34336635227495 6.722796581343248 0 0 0
206 0 2 0 15.188544967055021 12.511961380844266 7.335989025066639 0 0 0
282 0 2 0 12.336029949456295 13.096522329927458 5.592401838951258 0 0 0
280 0 1 0 12.56541823316149 13.997926405286286 5.425373390995488 0 0 0
311 0 2 0 14.417084776688242 14.285134122081475 5.2304966987412405 0 0 0
310 0 1 0 15.343818800562085 14.414635522203108 5.261866912088346 0 0 0
312 0 2 0 15.788211527190981 13.60852977772703 5.589251872142061 0 0 0
612 0 2 0 12.17826661867215 15.262656226334835 6.753250631411177 0 0 0
614 0 2 0 15.752983656161994 15.812625314764574 6.360211381900213 0 0 0
318 0 2 0 18.49169422525543 14.05351504821493 4.696858160675255 0 0 0
188 0 2 0 19.71030226052885 12.10182973871608 5.6463567324849615 0 0 0
316 0 1 0 19.15322377921506 13.920166346838693 5.373192216947758 0 0 0
317 0 2 0 19.030259946170833 14.376957492950773 6.231234437123148 0 0 0
518 0 2 0 17.246265606589535 12.58566273134951 7.822656241559511 0 0 0
648 0 2 0 19.333564856977105 15.355707282625627 8.173322585707519 0 0 0
647 0 2 0 17.87442571024124 15.58819364463754 7.629611616055837 0 0 0
646 0 1 0 18.797143162590725 15.59252437993003 7.401271686053203 0 0 0
24 0 2 0 2.3981484093722703 19.4538039486684 5.766451074246531 0 -1 0
241 0 1 0 2.3874193276697167 18.26300652441759 6.950054474235509 0 0 0
242 0 2 0 2.6339408143335534 17.379148355988725 6.684918012505242 0 0 0
243 0 2 0 3.194084966399237 18.55714348338053 7.455785123294068 0 0 0
560 0 2 0 1.2028503720505725 18.703005704009065 8.173884119115353 0 0 0
297 0 2 0 -0.03823926400195719 17.192909412935784 5.239103282667224 1 0 0
574 0 1 0 5.24722882937057 16.06647181795949 7.3891539748176625 0 0 0
30 0 2 0 5.869386463391517 19.85942502929136 5.528286455109041 0 -1 0
224 0 2 0 5.125715249271497 17.819703709651122 4.897396921069919 0 0 0
223 0 1 0 5.93592126586671 17.908552948176506 5.442791503865111 0 0 0
225 0 2 0 6.641947843718063 17.69593032292653 4.825245708830696 0 0 0
576 0 2 0 5.619546747316636 16.782507356793857 6.844614565188921 0 0 0
597 0 2 0 6.341558093086777 19.647585287551443 8.318444744513997 0 0 0
270 0 2 0 11.023683573306432 17.913722887243523 4.442432810277607 0 0 0
278 0 2 0 8.407773628807226 19.122935160702347 7.0901553734078115 0 0 0
277 0 1 0 8.957813661673985 18.72522037330382 6.403689129001241 0 0 0
579 0 2 0 9.008371455048705 16.750764559890783 6.436725191492524 0 0 0
279 0 2 0 9.81436869192443 18.797350945753024 6.856309481623043 0 0 0
589 0 1 0 10.827441424428777 18.84356395866184 8.30302092496089 0 0 0
300 0 2 0 15.256871365628502 17.640296678700295 4.546423896269159 0 0 0
299 0 2 0 13.686442697188914 17.907279584030967 4.9282341757928405 0 0 0
261 0 2 0 12.260568913053042 17.715537170187915 6.637139001941081 0 0 0
260 0 2 0 12.265831194051366 19.23821897672778 6.1120926000974904 0 0 0
259 0 1 0 12.231792882434007 18.31265008697602 5.858546539704106 0 0 0
315 0 2 0 15.04105493991457 19.25026744909308 7.879375591945418 0 0 0
314 0 2 0 15.58627846370339 19.54380140899135 6.423137029162882 0 0 0
313 0 1 0 15.551391096051942 18.87547020895451 7.108749234374095 0 0 0
615 0 2 0 15.960717938925729 17.208085901025882 7.0342540122674375 0 0 0
305 0 2 0 18.06926180744048 17.58938072329638 4.493522590025232 0 0 0
613 0 1 0 16.134602319590613 16.252556500953702 7.128320935954087 0 0 0
102 0 2 0 19.94391770185682 19.337026442442273 5.643304416367648 0 -1 0
295 0 1 0 19.422637812789308 17.594733069612907 5.672880853224042 0 0 0
296 0 2 0 19.228999110313538 16.958619022237052 6.366067825889735 0 0 0
627 0 2 0 17.538474652761824 19.161919100175886 7.84876603235368 0 0 0
355 0 1 0 1.029641178844918 1.6282202507369752 8.86137742828005 0 0 0
335 0 2 0 1.2274398853824986 3.022457417355417 10.239288880748862 0 0 0
347 0 2 0 2.6671836352283598 0.7650525039908445 11.03925942680132 0 0 0
348 0 2 0 1.0569346308705312 0.6111802547423877 11.546386195794794 0 0 0
346 0 1 0 2.0261018798384707 0.41630529444270137 11.746999385227756 0 0 0
357 0 2 0 0.1791093825586772 1.7966976165305353 8.465944410347793 0 0 0
334 0 1 0 1.0565660070768956 3.8460029561360174 10.788438490096807 0 0 0
329 0 2 0 3.963214397482542 2.289088360053372 10.23758799678545 0 0 0
328 0 1 0 4.250824466755774 1.3301644914661777 10.171521037909036 0 0 0
330 0 2 0 5.017761957232317 1.1711866080979616 10.846250839434669 0 0 0
353 0 2 0 7.011342030633626 0.9465650712778042 11.7664429062329 0 0 0
554 0 2 0 4.285426545449258 -0.03154753218592848 9.031811543156492 0 1 0
352 0 1 0 6.069486444348538 0.7853076151629486 11.970366094818946 0 0 0
391 0 1 0 7.79936116649623 1.9897384744613582 8.886163957877569 0 0 0
393 0 2 0 7.595307051120871 0.9870480460727475 8.773997443880795 0 0 0
372 0 2 0 8.129241986964 3.378300552579154 10.054095215060594 0 0 0
382 0 1 0 8.738370370590419 1.1281972115284438 11.745678239875753 0 0 0
366 0 2 0 9.997980022435721 1.1568798872816455 10.153508356562726 0 0 0
364 0 1 0 10.926826416884733 1.1324678495229556 9.788824846330243 0 0 0
378 0 2 0 11.102816739643172 2.868468957916199 9.866418576542785 0 0 0
365 0 2 0 11.493275694605671 0.8937787016897888 10.520473399818137 0 0 0
376 0 1 0 11.121326200679885 3.851962585794052 10.08320274062103 0 0 0
383 0 2 0 8.779800553269576 0.3346408647549044 12.30334223573772 0 0 0
384 0 2 0 8.8183494583869 1.8806668742450647 12.394162963278928 0 0 0
429 0 2 0 14.820704471705094 2.203087790043229 8.518587337214885 0 0 0
427 0 1 0 13.98382915559522 2.0195903696486632 8.960166023708728 0 0 0
428 0 2 0 14.056885651102851 2.5733533986900174 9.754250594114485 0 0 0
418 0 1 0 15.21890733811485 0.8155007544706002 11.93955121156479 0 0 0
632 0 2 0 13.623022495208001 0.25895252057793977 8.992149905675145 0 1 0
389 0 2 0 13.279919874517295 0.4913610376756615 12.261972637133383 0 0 0
388 0 1 0 12.321895274917182 0.4680077806598102 12.25979506148897 0 0 0
400 0 1 0 17.311149329703664 1.2120317286786055 10.199151941163787 0 0 0
401 0 2 0 17.58537359954554 0.6101379245159754 9.519281728240095 0 0 0
402 0 2 0 16.459145078611833 0.9197926339338174 10.621703752404368 0 0 0
414 0 2 0 17.408807152718605 2.9332141900644877 9.877441431254798 0 0 0