LAMMPS (29 Sep 2021 - Update 2)
  using 1 OpenMP thread(s) per MPI task
echo both

include		in.partitions
variable        pid world 0
include		in.temp
variable        temperature equal 235
variable	tempDamp equal 0.1
include		in.pressure
variable        pressure equal 2026.5
variable        pressureDamp equal 1.0 # This is 1 ps
include		in.seed
variable        seed world 745823

units           metal
atom_style	full
include		in.box
read_data       iceIII.data
Reading data file ...
  orthogonal box = (0.0000000 0.0000000 0.0000000) to (19.991053 19.991053 20.800772)
  1 by 1 by 1 MPI processor grid
  reading atoms ...
  972 atoms
Finding 1-2 1-3 1-4 neighbors ...
  special bond factors lj:    0        0        0       
  special bond factors coul:  0        0        0       
     0 = max # of 1-2 neighbors
     0 = max # of 1-3 neighbors
     0 = max # of 1-4 neighbors
     1 = max # of special neighbors
  special bonds CPU = 0.003 seconds
  read_data CPU = 0.028 seconds
include 	in.setup
variable	out_freq equal 500
variable	out_freq2 equal 500

timestep        0.0005

neigh_modify    delay 7 every 1

include         in.deepmd
# This is deepMD model

# create groups ###
#group ox type 2
#group hy type 1

mass 2 15.999
mass 1 1.008

pair_style      deepmd ../graph.pb
pair_coeff      * *

bond_style      none
angle_style     none
dihedral_style  none
improper_style  none
neigh_modify exclude none


neighbor        2.0 bin
neigh_modify    every 10 delay 0 check no

thermo          ${out_freq}
thermo          500
thermo_style 	custom step temp pe etotal epair emol press lx ly lz xy xz yz vol pxx pyy pzz pxy pxz pyz cella cellb cellc cellalpha cellbeta cellgamma

restart 	${out_freq} restart.lmp.${pid} restart2.lmp.${pid}
restart 	500 restart.lmp.${pid} restart2.lmp.${pid}
restart 	500 restart.lmp.0 restart2.lmp.${pid}
restart 	500 restart.lmp.0 restart2.lmp.0


include         in.dump
dump            myDump all atom ${out_freq2} dump.water.${pid}
dump            myDump all atom 500 dump.water.${pid}
dump            myDump all atom 500 dump.water.0
dump            myDump2 all dcd ${out_freq2} dump.dcd
dump            myDump2 all dcd 500 dump.dcd
dump_modify     myDump append yes
dump_modify     myDump2 append yes


timer           timeout 04:55:00 every 1000
New timer settings: style=normal  mode=nosync  timeout=04:55:00

fix             2 all nph aniso ${pressure} ${pressure} ${pressureDamp}
fix             2 all nph aniso 2026.5 ${pressure} ${pressureDamp}
fix             2 all nph aniso 2026.5 2026.5 ${pressureDamp}
fix             2 all nph aniso 2026.5 2026.5 1
fix             3 all temp/csvr ${temperature} ${temperature} ${tempDamp} ${seed}
fix             3 all temp/csvr 235 ${temperature} ${tempDamp} ${seed}
fix             3 all temp/csvr 235 235 ${tempDamp} ${seed}
fix             3 all temp/csvr 235 235 0.1 ${seed}
fix             3 all temp/csvr 235 235 0.1 745823
velocity 	all create ${temperature} ${seed} dist gaussian
velocity 	all create 235 ${seed} dist gaussian
velocity 	all create 235 745823 dist gaussian

run             400000

CITE-CITE-CITE-CITE-CITE-CITE-CITE-CITE-CITE-CITE-CITE-CITE-CITE

Your simulation uses code contributions which should be cited:

- USER-DEEPMD package:

@article{Wang_ComputPhysCommun_2018_v228_p178,
  author = {Wang, Han and Zhang, Linfeng and Han, Jiequn and E, Weinan},
  doi = {10.1016/j.cpc.2018.03.016},
  url = {https://doi.org/10.1016/j.cpc.2018.03.016},
  year = 2018,
  month = {jul},
  publisher = {Elsevier {BV}},
  volume = 228,
  journal = {Comput. Phys. Commun.},
  title = {{DeePMD-kit: A deep learning package for many-body potential energy representation and molecular dynamics}},
  pages = {178--184}
}

CITE-CITE-CITE-CITE-CITE-CITE-CITE-CITE-CITE-CITE-CITE-CITE-CITE

Neighbor list info ...
  update every 10 steps, delay 0 steps, check no
  max neighbors/atom: 2000, page size: 100000
  master list distance cutoff = 8
  ghost atom cutoff = 8
  binsize = 4, bins = 5 5 6
  1 neighbor lists, perpetual/occasional/extra = 1 0 0
  (1) pair deepmd, perpetual
      attributes: full, newton on
      pair build: full/bin
      stencil: full/bin/3d
      bin: standard
Per MPI rank memory allocation (min/avg/max) = 7.648 | 7.648 | 7.648 Mbytes
Step Temp PotEng TotEng E_pair E_mol Press Lx Ly Lz Xy Xz Yz Volume Pxx Pyy Pzz Pxy Pxz Pyz Cella Cellb Cellc CellAlpha CellBeta CellGamma 
       0          235   -175.65013   -146.15491   -175.65013            0    37308.316    19.991053    19.991053    20.800772            0            0            0    8312.8663    41099.163    41514.321    29311.463   -62.602311   -1048.5914   -440.72363    19.991053    19.991053    20.800772           90           90           90 
     500    232.67574    -164.9772    -135.7737    -164.9772            0    -2065.137    20.158344    20.065525    20.615285            0            0            0    8338.6299   -2111.8816   -1218.8526   -2864.6768   -452.61163   -792.48825   -833.26793    20.158344    20.065525    20.615285           90           90           90 
    1000    244.64808   -164.37071   -133.66454   -164.37071            0   -451.66208    20.267567    20.152907    20.381689            0            0            0    8324.9086   -839.05289     274.6469   -790.58023   -1331.4911    -449.1466   -419.35394    20.267567    20.152907    20.381689           90           90           90 
    1500    232.41015   -164.37233   -135.20216   -164.37233            0    7593.3953    20.271814    20.179027    20.354304            0            0            0    8326.2433    4702.5782    9495.0778      8582.53    1962.2222   -1600.0784    517.71767    20.271814    20.179027    20.354304           90           90           90 
    2000     233.1027   -162.57198   -133.31489   -162.57198            0     -4205.67    20.212976    20.152829    20.427603            0            0            0    8321.1564   -5111.1365   -1438.9607   -6066.9129    904.19446    152.76829     719.4468    20.212976    20.152829    20.427603           90           90           90 
    2500    237.81856   -162.13096   -132.28197   -162.13096            0    7522.5404    20.069715    20.227158    20.560461            0            0            0    8346.5869    8961.9836    6215.9777    7389.6599    2463.0465    2122.0077    480.40896    20.069715    20.227158    20.560461           90           90           90 
    3000    232.96482   -161.58295   -132.34317   -161.58295            0    3553.9386     20.08107    20.222396    20.768644            0            0            0     8433.883    7716.5625    686.69753    2258.5556    -985.9807    -2720.566    563.61374     20.08107    20.222396    20.768644           90           90           90 
    3500     230.2419   -162.18577   -133.28774   -162.18577            0    1806.4475    20.193099    19.973301    20.604449            0            0            0     8310.245    2325.2706   -201.63846    3295.7105   -704.76939    1737.7564    2790.6453    20.193099    19.973301    20.604449           90           90           90 
    4000    234.51908   -163.34375   -133.90889   -163.34375            0    2597.6997    20.373568    20.020493     20.52538            0            0            0    8372.0737    212.11783    3492.1497    4088.8316   -1547.8158    2991.8835   -400.27535    20.373568    20.020493     20.52538           90           90           90 
    4500    233.56431   -163.23629   -133.92126   -163.23629            0    3336.7389    20.203924    20.171126    20.467492            0            0            0    8341.2376    5279.8483    2730.6103    1999.7582    697.84554   -1029.3777    1794.6158    20.203924    20.171126    20.467492           90           90           90 
    5000    227.16154    -161.9925   -133.48109    -161.9925            0    1431.8456    20.087409    20.266935     20.58034            0            0            0    8378.4663    331.72891    2864.5822    1099.2258    775.02674    255.89604    886.97626    20.087409    20.266935     20.58034           90           90           90 
    5500    228.32834   -163.56313   -134.90528   -163.56313            0    3408.9838    20.074743     20.14937    20.661992            0            0            0    8357.6401    4629.1577    1175.1145    4422.6792   -1411.1699    4037.7524    1616.4119    20.074743     20.14937    20.661992           90           90           90 
    6000    230.40901   -162.25648   -133.33747   -162.25648            0    1667.1718    20.164084     20.14987    20.717706            0            0            0    8417.6797    44.656321    6185.5688   -1228.7096    535.80361   -1490.0773    1025.0632    20.164084     20.14987    20.717706           90           90           90 
    6500    233.06366   -163.41247   -134.16028   -163.41247            0    790.58089     20.10564    20.084027    20.420847            0            0            0    8245.9835    2741.7969    129.05654   -499.11076   -1652.5487    177.05249    4233.1801     20.10564    20.084027    20.420847           90           90           90 
    7000    243.55945   -162.88894    -132.3194   -162.88894            0     2715.223    20.275122    20.233643    20.382764            0            0            0    8361.8166   -887.30978    5635.5933    3397.3854   -860.05054    1034.8238   -2418.8829    20.275122    20.233643    20.382764           90           90           90 
    7500     226.8863   -160.56561   -132.08875   -160.56561            0    1416.1393    20.281008    20.228098    20.489347            0            0            0    8405.6773    2884.2967    -446.9688    1811.0899   -790.88759    2182.1075    125.69879    20.281008    20.228098    20.489347           90           90           90 
    8000    233.79015   -163.46737     -134.124   -163.46737            0    3223.5194    20.101633    20.154062    20.625335            0            0            0     8355.933    6099.6778    1616.9937    1953.8868   -246.17283    1255.9721    -726.0356    20.101633    20.154062    20.625335           90           90           90 
    8500    227.39905   -162.99262    -134.4514   -162.99262            0    3379.0926    19.997097    20.189003    20.729875            0            0            0    8369.0953    2900.1182    3389.8426    3847.3171    1007.4603   -12.745133   -2962.4073    19.997097    20.189003    20.729875           90           90           90 
    9000     239.0496   -161.75365   -131.75015   -161.75365            0    759.45786    20.116316    20.189996    20.643047            0            0            0    8384.1392    1983.9063    233.43562    61.031674   -1269.0712    120.84493    1269.8459    20.116316    20.189996    20.643047           90           90           90 
    9500    238.32134   -162.17432   -132.26223   -162.17432            0    954.88236    20.427528    20.108544    20.491958            0            0            0    8417.4374   -1367.3002    1358.1463     2873.801    52.482927   -1696.6564    1040.5039    20.427528    20.108544    20.491958           90           90           90 
   10000    241.24447   -161.78311   -131.50413   -161.78311            0     3461.223    20.395962    20.052257    20.393674            0            0            0    8340.7084    5413.3724    1668.2795    3302.0172   -2476.1469   -103.40261    -1248.011    20.395962    20.052257    20.393674           90           90           90 
   10500    250.01778   -161.62312   -130.24299   -161.62312            0   -1392.4212    20.075697     20.29282    20.535745            0            0            0    8366.1086    1224.3819    -5443.802    42.156344    576.88253    613.81647    1490.2528    20.075697     20.29282    20.535745           90           90           90 
   11000    237.93044   -162.09711   -132.23408   -162.09711            0    2686.1842    19.929206    20.381322    20.719171            0            0            0    8415.7868    4821.6422   -368.28833    3605.1987   -87.797491   -1195.6581    852.32273    19.929206    20.381322    20.719171           90           90           90 
   11500    230.77873   -162.46391   -133.49851   -162.46391            0    2809.9027    20.090025    20.130997    20.667765            0            0            0    8358.7101    7521.6475     2730.504   -1822.4434   -196.53781    882.05735   -1165.0385    20.090025    20.130997    20.667765           90           90           90 
   12000    243.25343    -162.7715   -132.24037    -162.7715            0      3549.39    20.315183    20.057003     20.52732            0            0            0    8364.0966    4770.1917    4688.0478    1189.9307   -354.44336   -484.01366   -388.61791    20.315183    20.057003     20.52732           90           90           90 
   12500    245.52355   -162.57411   -131.75806   -162.57411            0    4169.1941    20.257795    20.168526    20.366502            0            0            0    8321.1391    6037.8814    3705.4067    2764.2941   -377.59143   -167.96152    1711.5114    20.257795    20.168526    20.366502           90           90           90 
   13000    231.18212   -160.34201   -131.32597   -160.34201            0    935.15103    20.212164    20.292804    20.413113            0            0            0    8372.6728    165.21404   -628.82098      3269.06    461.00477     1334.666    2857.1936    20.212164    20.292804    20.413113           90           90           90 
   13500    229.47888   -162.38943   -133.58717   -162.38943            0    5080.9149    20.116787    20.149825    20.583132            0            0            0     8343.367    5958.9281    6014.2696     3269.547   -704.12681    -678.1112   -149.01732    20.116787    20.149825    20.583132           90           90           90 
   14000    235.45649   -163.97369   -134.42116   -163.97369            0    1406.6833    20.137968    20.067453    20.824403            0            0            0    8415.5107    -228.3653    5213.7341   -765.31885    1138.1684    2252.5595   -2110.4094    20.137968    20.067453    20.824403           90           90           90 
   14500    226.96781   -163.23708   -134.74999   -163.23708            0    1738.7915    20.166795    20.095772    20.760921            0            0            0     8413.723   -22.438274    1616.2791    3622.5335   -479.80038   -1672.9371    660.51114    20.166795    20.095772    20.760921           90           90           90 
   15000    236.59348     -162.175   -132.47977     -162.175            0   -1089.9799    20.233656    20.318917    20.435781            0            0            0    8401.6806   -1210.7753   -1053.6331   -1005.5313     -894.004    40.164016   -793.53375    20.233656    20.318917    20.435781           90           90           90 
   15500    231.62148   -161.82419   -132.75301   -161.82419            0    4794.9078    20.266835    20.315247    20.058062            0            0            0     8258.421     5595.633     3224.082    5565.0083     -141.243    2631.8824    1890.4725    20.266835    20.315247    20.058062           90           90           90 
   16000    238.67897   -162.52207   -132.56509   -162.52207            0     2030.057    20.433333    20.198228    20.274936            0            0            0    8367.8131    4035.9136    323.59087    1730.6665    1870.7853   -4414.1991    1419.3355    20.433333    20.198228    20.274936           90           90           90 
   16500    241.06691   -162.68011   -132.42342   -162.68011            0     1483.455    20.253078    20.065377    20.667554            0            0            0    8398.9975   -426.40253    1177.9719    3698.7955   -608.68446    139.08748    354.49771    20.253078    20.065377    20.667554           90           90           90 
   17000    240.41865   -162.96906   -132.79373   -162.96906            0    2668.4857    20.052986    20.120532    20.763496            0            0            0    8377.5877    3973.2002    3575.4547    456.80214    1325.3065   -1081.5628   -586.98023    20.052986    20.120532    20.763496           90           90           90 
   17500    231.91724   -162.12519   -133.01689   -162.12519            0    4223.4842    20.158912    20.280514    20.655964            0            0            0    8444.8421    6508.1409   -1060.4702    7222.7817    -897.1722    179.89134   -902.14294    20.158912    20.280514    20.655964           90           90           90 
   18000    227.79071   -162.94838     -134.358   -162.94838            0    5647.1416    20.260511    20.208411    20.385905            0            0            0    8346.6567     4810.757    7038.7836    5091.8841    245.28866    490.77248   -43.216392    20.260511    20.208411    20.385905           90           90           90 
   18500    242.75153   -164.54805   -134.07992   -164.54805            0    4977.7296    20.285483    20.127676    20.240976            0            0            0    8264.3826     5049.806    3898.5184    5984.8643   -44.204669    -794.1598   -767.07362    20.285483    20.127676    20.240976           90           90           90 
   19000    232.03762   -162.79665   -133.67323   -162.79665            0    3227.0941    20.341753    20.246323    20.510525            0            0            0    8447.1714    4082.6821    3413.8216    2184.7785    885.19877   -1679.8072    247.68235    20.341753    20.246323    20.510525           90           90           90 
   19500    232.33335   -162.31306   -133.15253   -162.31306            0    3055.7714    20.175107    20.114172    20.705172            0            0            0    8402.2739    2459.8427    5145.1272    1562.3441     470.0371   -486.05627    -831.4545    20.175107    20.114172    20.705172           90           90           90 
   20000    234.27955   -163.91761    -134.5128   -163.91761            0    1193.4526    20.093076    20.003318    20.679542            0            0            0    8311.6909     1272.806    369.94508    1937.6068   -1173.1106    1466.3936   -396.69686    20.093076    20.003318    20.679542           90           90           90 
   20500    229.59958   -162.98271    -134.1653   -162.98271            0    670.20063    20.184409     20.17129      20.5537            0            0            0    8368.3483    953.08753    399.15653    658.35783   -619.16062   -3377.5453    642.09862    20.184409     20.17129      20.5537           90           90           90 
   21000     234.2634   -163.82905   -134.42628   -163.82905            0    1729.4744    20.252364    20.387513    20.313971            0            0            0    8387.5438    478.04739   -517.79205    5228.1679   -534.08682   -1057.9552    728.51068    20.252364    20.387513    20.313971           90           90           90 
   21500    224.92752   -163.61321   -135.38219   -163.61321            0    6791.2328    20.200846    20.202629    20.281834            0            0            0    8277.2229     6046.619    7505.2629    6821.8166   -2496.7577    712.89299   -267.93431    20.200846    20.202629    20.281834           90           90           90 
   22000    229.98971    -162.3656   -133.49923    -162.3656            0    1868.6483    20.322728    20.056388     20.60216            0            0            0     8397.451    1135.0111    794.28847    3676.6455    3027.8808    478.83713   -1264.5461    20.322728    20.056388     20.60216           90           90           90 
   22500    238.50487   -163.37209   -133.43696   -163.37209            0    4162.2456    20.236749    20.015153    20.748486            0            0            0    8404.0003    4692.4839    3683.7989    4110.4539   -1078.8843    1414.9479     51.03526    20.236749    20.015153    20.748486           90           90           90 
   23000    230.04771   -163.75927   -134.88562   -163.75927            0     235.7427    20.122286    20.161922    20.702437            0            0            0    8399.0603    1935.4399   -2186.4465    958.23471    629.48789    -4567.206   -1311.9705    20.122286    20.161922    20.702437           90           90           90 
   23500    237.36423   -162.61078   -132.81881   -162.61078            0    2132.9656    20.134183    20.294249    20.464758            0            0            0    8362.0663    730.56334     1718.104    3950.2295   -306.58724   -18.904229   -1475.8038    20.134183    20.294249    20.464758           90           90           90 
   24000    246.10382   -162.30804   -131.41915   -162.30804            0    2652.6894    20.244579    20.215597    20.286993            0            0            0    8302.5788    2311.9295    1932.0676    3714.0711    1185.9793   -1151.5067   -2608.7615    20.244579    20.215597    20.286993           90           90           90 
   24500    235.25041   -162.05102   -132.52436   -162.05102            0    880.21018    20.361001    20.216521    20.519138            0            0            0    8446.2641    535.98495    1167.0946    937.55102   -373.52453    1293.2803    2292.5361    20.361001    20.216521    20.519138           90           90           90 
   25000    234.45387   -161.71724   -132.29056   -161.71724            0    2293.8724    20.115616    20.105232    20.551249            0            0            0    8311.5235     5414.363   -466.75527    1934.0095   -1.1666155    1438.6687    2719.2072    20.115616    20.105232    20.551249           90           90           90 
   25500    237.50515   -161.90651   -132.09686   -161.90651            0    581.83371    20.172884    20.229362    20.592453            0            0            0    8403.4623    2453.1903   -1820.9399    1113.2508    -408.0687   -675.05688   -2218.7316    20.172884    20.229362    20.592453           90           90           90 
   26000    237.24531   -161.18671   -131.40967   -161.18671            0    33.006065    20.263162    20.158598    20.526629            0            0            0    8384.6548   -2994.9392    3214.1104   -120.15305    817.01655    1441.9051   -1429.7032    20.263162    20.158598    20.526629           90           90           90 
   26500    223.72586   -162.03358   -133.95339   -162.03358            0    368.44769    20.265516     20.05582    20.480533            0            0            0    8324.1397   -2453.6146    2484.5156     1074.442   -877.55949   -273.55306   -1155.5449    20.265516     20.05582    20.480533           90           90           90 
   27000    240.29375   -161.66937   -131.50971   -161.66937            0    2450.8435     20.26019    20.223847    20.565017            0            0            0    8426.2894    4848.2094    2405.6108    98.710305    427.22324    71.963948   -243.49212     20.26019    20.223847    20.565017           90           90           90 
   27500    238.02442   -162.58971   -132.71488   -162.58971            0    2617.2294    20.049975    20.301863    20.519254            0            0            0    8352.4003    1418.4534    2361.4542    4071.7806    -557.1678   -2348.7482   -2837.9449    20.049975    20.301863    20.519254           90           90           90 
   28000    227.00307   -162.36794   -133.87642   -162.36794            0    1759.3259    20.071152    20.246862    20.504775            0            0            0    8332.6862   -981.92348    5155.1416    1104.7596   -193.64022    -1187.671   -287.69312    20.071152    20.246862    20.504775           90           90           90 
   28500    241.17511   -162.70077    -132.4305   -162.70077            0    2476.4764    20.288625    20.228877    20.640596            0            0            0    8471.2332    1331.5985    1987.6774    4110.1531    -524.7302   -3091.3648    1759.0571    20.288625    20.228877    20.640596           90           90           90 
   29000    236.21703   -162.37512   -132.72714   -162.37512            0    2175.3278      20.2747    20.014791     20.56441            0            0            0    8344.9119    1967.9788    4931.9658   -373.96129   -279.26295   -76.744419   -955.89022      20.2747    20.014791     20.56441           90           90           90 
   29500    239.64844   -161.81099   -131.73233   -161.81099            0    3913.9856    20.265055     20.06034    20.536173            0            0            0     8348.445    1386.4432    7123.5181    3231.9955    31.537448     1846.798    434.30379    20.265055     20.06034    20.536173           90           90           90 
   30000    244.79223   -160.86897   -130.14471   -160.86897            0    961.09551    20.276126    20.295924    20.691681            0            0            0    8515.0969    273.89231    400.97342    2208.4208   -1465.5316    3392.4076   -1390.8717    20.276126    20.295924    20.691681           90           90           90 
   30500    237.11218   -161.46633     -131.706   -161.46633            0   -325.03787    20.053962    20.296253    20.670948            0            0            0    8413.4954   -716.17295    16.842105   -275.78276    175.68531    574.19187    515.87986    20.053962    20.296253    20.670948           90           90           90 
   31000    238.46007    -161.0557   -131.12619    -161.0557            0    4394.5525     19.98741    20.107357    20.486504            0            0            0    8233.4033    2844.3885    5845.5265    4493.7424   -1111.7346    747.60546    1143.7304     19.98741    20.107357    20.486504           90           90           90 
   31500    236.61429    -161.9586   -132.26076    -161.9586            0   -2166.0674    20.417765    20.280538    20.543374            0            0            0    8506.6674   -2368.0425   -2235.1537   -1895.0061    659.21077   -459.00021   -3207.7005    20.417765    20.280538    20.543374           90           90           90 
   32000    243.90345   -163.78143   -133.16872   -163.78143            0    5139.2199    20.312768    20.161169    20.396117            0            0            0    8352.8044     8015.841    1758.3511    5643.4676   -1300.5014   -857.36225   -807.18798    20.312768    20.161169    20.396117           90           90           90 
   32500    237.77654   -162.12752    -132.2838   -162.12752            0    2646.7855    20.133413    20.122686    20.574617            0            0            0    8335.5663    4126.6138    724.33173     3089.411    603.52874   -1157.2643    996.66649    20.133413    20.122686    20.574617           90           90           90 
   33000    246.00415   -163.21086   -132.33449   -163.21086            0    33.728925    20.144138     20.09218    20.754756            0            0            0    8400.2727   -862.26775    1836.5044   -873.04988   -1200.1897    2484.6056   -1315.6928    20.144138     20.09218    20.754756           90           90           90 
   33500    236.49696   -162.74076   -133.05765   -162.74076            0    670.38957    20.277129    20.102303    20.691004            0            0            0    8434.0048   -1570.3958    2482.7587    1098.8057    899.37482   -310.32651    3366.6617    20.277129    20.102303    20.691004           90           90           90 
   34000    226.64119   -163.47099    -135.0249   -163.47099            0    2664.9979    20.158368    20.187482    20.488074            0            0            0    8337.5542    2312.6669    4564.3011    1118.0258    637.51724   -2049.4716    1539.2353    20.158368    20.187482    20.488074           90           90           90 
   34500    231.60826   -164.65809   -135.58856   -164.65809            0    1879.6305    20.082071     20.27068    20.383138            0            0            0    8297.5114   -113.69011    3612.0685    2140.5132   -163.54464    2587.1889    2566.7726    20.082071     20.27068    20.383138           90           90           90 
   35000    224.65383   -164.40037   -136.20371   -164.40037            0    596.96011    20.173754    20.312362    20.484176            0            0            0    8393.9358    799.66648   -2458.0812    3449.2951    1365.3976    -927.8655    14.727631    20.173754    20.312362    20.484176           90           90           90 
   35500     223.0695   -162.79774   -134.79993   -162.79774            0    4491.0006    20.218569    20.110197    20.575803            0            0            0    8366.1089    6046.8298     5819.219     1606.953    231.01455    1215.2715   -1422.7792    20.218569    20.110197    20.575803           90           90           90 
   36000    236.70377   -163.34324   -133.63417   -163.34324            0   -1182.8804    20.261034    20.007035    20.670592            0            0            0    8379.0976    1527.7944   -3539.6418   -1536.7939   -1047.4917   -740.83287    1296.8616    20.261034    20.007035    20.670592           90           90           90 
   36500    235.67085   -162.69053   -133.11111   -162.69053            0    1179.5125    20.202838    19.972301    20.570299            0            0            0    8300.0575    861.60618    3171.4361   -494.50479    87.687979   -1492.3796    91.830091    20.202838    19.972301    20.570299           90           90           90 
   37000    231.05382   -162.39855   -133.39862   -162.39855            0    720.91589    20.317162    20.194984    20.543029            0            0            0    8428.9027   -1998.7043    95.184795    4066.2672   -808.29237    2626.9228   -113.86684    20.317162    20.194984    20.543029           90           90           90 
   37500     233.9749   -162.98195   -133.61539   -162.98195            0    1594.3928    20.144469    20.302454    20.381462            0            0            0    8335.6541   -2517.6225    4296.8481    3003.9529    820.53859   -864.98549    2300.2882    20.144469    20.302454    20.381462           90           90           90 
   38000    245.37329   -162.81436   -132.01716   -162.81436            0    3973.1121    20.044555    20.364138    20.477285            0            0            0    8358.6249    4434.6423    2791.7951    4692.8989   -789.27525   -2183.2251   -487.80044    20.044555    20.364138    20.477285           90           90           90 
   38500    235.63306   -162.26204   -132.68736   -162.26204            0    3313.5542    20.070811    20.203018    20.649519            0            0            0    8373.1933    4714.8318    649.51212    4576.3188   -685.45712    1820.5746   -224.95732    20.070811    20.203018    20.649519           90           90           90 
   39000    227.02973   -162.42968   -133.93481   -162.42968            0    1253.8255    20.222994    19.946633    20.699966            0            0            0    8349.9653    1033.6107    3835.2543   -1107.3884    1033.2067   -1122.4015    862.21096    20.222994    19.946633    20.699966           90           90           90 
   39500    232.05539   -161.69867   -132.57302   -161.69867            0    2881.2103    20.391147    19.983763    20.680703            0            0            0    8427.2182   -896.70008    5252.3522    4287.9788    927.99617    89.217927   -2771.3979    20.391147    19.983763    20.680703           90           90           90 
   40000    241.32108    -163.8992    -133.6106    -163.8992            0    2098.4016    20.185819    20.135766    20.413351            0            0            0    8297.1476    361.36621    5190.1685    743.66998    402.33812    1866.0457    866.45938    20.185819    20.135766    20.413351           90           90           90 
   40500    236.97981   -163.44318   -133.69946   -163.44318            0    171.68124    20.181972    20.440608    20.439932            0            0            0    8432.1217   -3953.3792    3871.0589    597.36404   -37.769851     244.7424    1167.3885    20.181972    20.440608    20.439932           90           90           90 
   41000    227.12682   -162.58191   -134.07486   -162.58191            0    4890.1563     20.07153    20.264594    20.400249            0            0            0     8297.626    5068.0913    3598.5014    6003.8762    -435.4931    232.63871    801.26373     20.07153    20.264594    20.400249           90           90           90 
   41500    236.54276   -162.58749   -132.89863   -162.58749            0    1399.9249    20.106336    20.138792    20.662984            0            0            0    8366.8001   -1898.8568    3468.0164    2630.6152   -427.90489   -122.13216   -500.34618    20.106336    20.138792    20.662984           90           90           90 
   42000    238.71373   -162.81383   -132.85249   -162.81383            0    511.87253    20.118211    20.153518    20.842506            0            0            0    8450.6511    2149.0559   -41.545994   -571.89236    874.93255   -256.01349   -436.46906    20.118211    20.153518    20.842506           90           90           90 
   42500    233.22859   -161.19276   -131.91987   -161.19276            0    2022.6197    20.154786    20.130645     20.65754            0            0            0    8381.3597    3424.8376   -1203.0715    3846.0931    410.01525    2528.1878   -698.63128    20.154786    20.130645     20.65754           90           90           90 
   43000    240.27688   -162.45528   -132.29775   -162.45528            0    2943.9166    20.392012    20.033535    20.330722            0            0            0    8305.5897    1895.0446    3583.1687    3353.5363    734.28482     5380.491   -1746.4441    20.392012    20.033535    20.330722           90           90           90 
   43500    239.33838    -162.9777   -132.93795    -162.9777            0    -1236.395    20.422282    20.186872    20.278515            0            0            0    8360.0612   -1627.4375   -2218.7716    137.02398   -677.84445    17.131156    1345.8206    20.422282    20.186872    20.278515           90           90           90 
   44000    239.91067   -163.30292   -133.19135   -163.30292            0   -34.292612    20.095301    20.439676    20.475526            0            0            0    8410.1472    2555.9736   -3658.7157    999.86434   -749.97794    1533.8142    488.08674    20.095301    20.439676    20.475526           90           90           90 
   44500     232.6192   -162.49097   -133.29457   -162.49097            0    2786.9999    19.813698     20.29651    20.693521            0            0            0    8321.8772    2721.6786    3288.9954    2350.3256    1815.1899    2660.4265    2157.2748    19.813698     20.29651    20.693521           90           90           90 
   45000    223.79578   -163.34749   -135.25853   -163.34749            0    3484.0284    20.066351    20.125538    20.800801            0            0            0    8400.3223    3176.9682    3642.3975    3632.7194   -392.66685    544.74562    3301.0203    20.066351    20.125538    20.800801           90           90           90 
   45500    238.21488   -164.20391   -134.30518   -164.20391            0    615.95333    20.295865    20.094104     20.60093            0            0            0    8401.6199      430.808    2625.9732   -1208.9212     266.0532   -969.26843    2121.5723    20.295865    20.094104     20.60093           90           90           90 
   46000    237.10128   -163.26268   -133.50372   -163.26268            0    4484.7237    20.208289     20.16127    20.387645            0            0            0    8306.4314    4957.8948     2670.903    5825.3733   -882.34878   -1356.8382    165.83563    20.208289     20.16127    20.387645           90           90           90 
   46500    228.60818   -161.68604   -132.99306   -161.68604            0     1442.282      20.1919    20.293533    20.466433            0            0            0     8386.428   -350.74994    2709.5348    1968.0611    1640.1609    89.235993   -295.62231      20.1919    20.293533    20.466433           90           90           90 
   47000    231.87016   -161.92619    -132.8238   -161.92619            0    1259.6622    20.232214    20.192092     20.55404            0            0            0     8396.957    1128.5869    921.13921    1729.2604    765.83066    2008.1999   -584.97581    20.232214    20.192092     20.55404           90           90           90 
   47500    234.43471   -161.25374   -131.82946   -161.25374            0    2468.4152    20.156921    20.111159    20.647602            0            0            0    8370.1051    4895.3879   -10.906796    2520.7647   -193.82116    206.03702    63.880608    20.156921    20.111159    20.647602           90           90           90 
   48000    236.88626   -162.37882   -132.64685   -162.37882            0    2576.0802    20.066047    20.196078     20.71355            0            0            0    8394.2791    3046.6466    4723.8049   -42.210713   -541.15742    1668.4407    2192.4936    20.066047    20.196078     20.71355           90           90           90 
   48500    227.15057   -161.09433    -132.5843   -161.09433            0   -1953.3746    20.111627    20.226346     20.51923            0            0            0    8346.9096   -151.28194   -3612.4877   -2096.3542   -665.39415   -882.03447   -2377.2987    20.111627    20.226346     20.51923           90           90           90 
   49000    245.34067   -161.98206   -131.18896   -161.98206            0    142.03894    20.351053    20.191375    20.343428            0            0            0    8359.4352   -3740.3804    1447.7831    2718.7141   -799.90393    163.35605    1480.3879    20.351053    20.191375    20.343428           90           90           90 
   49500    256.92137   -160.97665   -128.73004   -160.97665            0    2842.0346    20.397764    20.168478    20.417236            0            0            0    8399.4847    3472.3075    3989.1355    1064.6607    -1189.141   -16.095075   -1116.1126    20.397764    20.168478    20.417236           90           90           90 
   50000    238.32203   -161.06248    -131.1503   -161.06248            0    850.49216    20.170604    20.200123    20.711431            0            0            0    8438.8454    1810.5622   -977.51371    1718.4279    317.43378   -494.69219    1635.4574    20.170604    20.200123    20.711431           90           90           90 
   50500    234.62185   -162.06091   -132.61314   -162.06091            0    4420.8021    19.993313    20.141787    20.794456            0            0            0    8373.9493    5167.2658    2596.8737    5498.2669   -327.92591    1789.9184   -1278.9949    19.993313    20.141787    20.794456           90           90           90 
   51000    231.17612   -161.10655   -132.09126   -161.10655            0    1886.5191    20.125372     20.20206    20.616694            0            0            0     8382.211   -1196.6399    5009.9597    1846.2375    623.18315   -2246.5486   -1068.1396    20.125372     20.20206    20.616694           90           90           90 
   51500    237.11057    -162.3187   -132.55857    -162.3187            0    1362.6146    20.326784    20.293883     20.42341            0            0            0    8424.8481     186.9264    875.62892    3025.2885    251.32189    41.273447   -882.88879    20.326784    20.293883     20.42341           90           90           90 
   52000    236.01062      -164.37   -134.74793      -164.37            0    3818.9096    20.190799    20.160454    20.306797            0            0            0    8265.9968    2527.0182    4798.0742    4131.6364   -1688.6351   -1224.5601   -314.95454    20.190799    20.160454    20.306797           90           90           90 
   52500    239.01286   -162.36502   -132.36613   -162.36502            0    2005.9066    20.207947     20.14494    20.560349            0            0            0    8369.8688    2525.8978    1841.8986    1649.9235    871.49852    138.53089    866.04883    20.207947     20.14494    20.560349           90           90           90 
   53000    235.40996   -163.09454   -133.54786   -163.09454            0     4229.294    20.151679    20.112378    20.751631            0            0            0    8410.5985    4686.1915     3618.104    4383.5865    838.92366    -130.1423    205.50576    20.151679    20.112378    20.751631           90           90           90 
   53500    236.96575   -162.57245    -132.8305   -162.57245            0    3837.4662    20.090291    20.210972    20.808825            0            0            0     8449.305    7671.5087    2352.1484    1488.7415    116.17812    647.95419    817.11824    20.090291    20.210972    20.808825           90           90           90 
   54000    243.20118   -162.43992   -131.91535   -162.43992            0    1690.0753    20.085559    20.247859    20.544454            0            0            0    8355.2155    511.29835    2822.8425    1736.0852    26.442966   -244.68095   -1116.3321    20.085559    20.247859    20.544454           90           90           90 
   54500    224.78929   -162.86582   -134.65216   -162.86582            0    4314.8449    20.311942    20.282734    20.257679            0            0            0    8345.7935    3157.1323    6079.6607    3707.7417    1115.1144     2160.532    395.14937    20.311942    20.282734    20.257679           90           90           90 
   55000    227.75228   -162.12203   -133.53647   -162.12203            0    1849.3175    20.418669     20.20484    20.386192            0            0            0     8410.445    4185.9127   -360.13214    1722.1719     786.7925   -661.09559    1622.8686    20.418669     20.20484    20.386192           90           90           90 
   55500     233.5054   -163.96924    -134.6616   -163.96924            0    3044.2302    20.152706    19.937126     20.73161            0            0            0    8329.6924    1615.8908    3824.6436    3692.1561     615.2535    961.30452    1698.8386    20.152706    19.937126     20.73161           90           90           90 
   56000    243.32307   -162.11615   -131.57628   -162.11615            0    4416.8154    19.999162    20.119532    20.987217            0            0            0    8444.7058    6857.1127      4122.25    2271.0834    1218.5434   -175.16638    201.67769    19.999162    20.119532    20.987217           90           90           90 
   56500    241.03371     -162.729   -132.47647     -162.729            0    3172.6114    20.093254    20.289945    20.711822            0            0            0    8444.0236    2997.7404    2360.5964    4159.4974   -926.72774    572.72908    417.33726    20.093254    20.289945    20.711822           90           90           90 
   57000    239.69741   -162.83121    -132.7464   -162.83121            0    3463.9652    20.198948    20.197538    20.422187            0            0            0    8331.6197    5225.6201      2720.83    2445.4457    814.35137    269.23005   -266.65864    20.198948    20.197538    20.422187           90           90           90 
   57500    235.19892   -163.00154   -133.48134   -163.00154            0    4227.4072    20.261926    20.200903    20.444423            0            0            0    8368.0904    6592.1485    228.50579    5861.5674   -418.04309     -1384.68    1022.8559    20.261926    20.200903    20.444423           90           90           90 
   58000    227.45825   -162.09939   -133.55074   -162.09939            0    2627.8939     20.22053    20.118074    20.592466            0            0            0    8376.9763    5012.3061    1067.3834    1803.9922    1469.0103    2389.3727    345.23414     20.22053    20.118074    20.592466           90           90           90 
   58500    237.48268   -163.11602   -133.30918   -163.11602            0     4371.782    20.129075    20.095535     20.70626            0            0            0    8375.7761     5158.055     4059.463    3897.8279   -1758.8359    3421.8881   -2634.1737    20.129075    20.095535     20.70626           90           90           90 
   59000    242.42859   -162.51948   -132.09188   -162.51948            0    775.84678    20.127394    20.193404    20.687169            0            0            0    8408.1053    1266.3645     1248.289   -187.11313   -693.35837   -1144.9793    3041.3697    20.127394    20.193404    20.687169           90           90           90 
   59500    230.67289   -161.14953   -132.19741   -161.14953            0    3084.7733    20.179877    20.213645    20.545471            0            0            0    8380.6798    3696.4426    5129.7974       428.08   -369.58584    2583.6315    1538.8344    20.179877    20.213645    20.545471           90           90           90 
   60000    233.18295   -162.65476    -133.3876   -162.65476            0    2523.2447    20.367874    20.311207     20.44645            0            0            0    8458.6168    1959.3481    3051.5078    2558.8783    2296.7493   -3510.7267    1162.4078    20.367874    20.311207     20.44645           90           90           90 
   60500    232.79443   -163.53308   -134.31468   -163.53308            0    5298.8142    20.222716    20.194148    20.397104            0            0            0    8329.7804    4434.3212    5734.4685     5727.653   -384.70046    2115.7619     986.5033    20.222716    20.194148    20.397104           90           90           90 
   61000    223.29877   -160.89265   -132.86606   -160.89265            0    1453.9323    20.140316     20.04129    20.666089            0            0            0    8341.6172    1871.9128    3041.6118    -551.7278    -16.45346   -1310.3933    673.67787    20.140316     20.04129    20.666089           90           90           90 
   61500     245.7244   -163.49814   -132.65687   -163.49814            0    3115.2366    20.166289    19.950126    20.840796            0            0            0     8384.669    4158.8685    2434.7875    2752.0537    161.86384    1176.5268   -2967.4969    20.166289    19.950126    20.840796           90           90           90 
   62000    229.97314   -160.86242   -131.99812   -160.86242            0    2597.8719    20.318103    20.127804    20.760422            0            0            0    8490.1573    1208.5169    4333.1458    2251.9531   -11.992465    1328.7831    921.57451    20.318103    20.127804    20.760422           90           90           90 
   62500    229.33967    -161.6026   -132.81781    -161.6026            0    3010.8784    20.209575    20.304944    20.404555            0            0            0    8373.0965    5691.6809   -1404.8554    4745.8097    856.60488   -475.23409    806.99484    20.209575    20.304944    20.404555           90           90           90 
   63000    245.88268   -161.64373    -130.7826   -161.64373            0    4614.5495    20.171244    20.347591    20.365576            0            0            0    8358.7702    3230.0606     4384.334     6229.254    1144.4483   -966.57899     2993.297    20.171244    20.347591    20.365576           90           90           90 
   63500    230.69454   -162.27779   -133.32295   -162.27779            0    1561.4635    20.257163    20.265776     20.64128            0            0            0    8473.8054    2341.2133    332.38031    2010.7971   -231.25066    49.763605    -126.2613    20.257163    20.265776     20.64128           90           90           90 
   64000    229.21625   -160.67698   -131.90769   -160.67698            0    5757.3851    20.126679    20.029485    20.758881            0            0            0    8368.4658    8083.6985    3055.3884    6133.0683    472.23075   -1889.1107   -2156.8834    20.126679    20.029485    20.758881           90           90           90 
   64500    237.64709   -162.58165   -132.75418   -162.58165            0    3154.6773    20.161567    20.106228    20.818531            0            0            0    8439.2718    2318.4069    5197.1235    1948.5015    673.55123    994.46225   -1258.2035    20.161567    20.106228    20.818531           90           90           90 
   65000    229.72947   -163.80906   -134.97535   -163.80906            0     2929.238    20.102516    20.149594     20.51019            0            0            0    8307.8072    5321.1498   -75.963371    3542.5276    446.88669   -2535.3361    1590.9657    20.102516    20.149594     20.51019           90           90           90 
   65500    227.99802   -162.45571   -133.83931   -162.45571            0    2603.9717    20.209572    20.358304    20.478254            0            0            0    8425.4213    2577.6172    2114.1156    3120.1823      78.2084    2231.2328   -810.27975    20.209572    20.358304    20.478254           90           90           90 
   66000    243.28377   -161.80262   -131.26769   -161.80262            0    2057.7726    20.202012    20.209649    20.543937            0            0            0    8387.5877    2630.2795    2330.5964    1212.4418   -344.09851   -1584.8975    2521.8693    20.202012    20.209649    20.543937           90           90           90 
   66500    235.60491   -161.66329   -132.09214   -161.66329            0    3641.8281     20.23371    20.007191    20.607188            0            0            0    8342.1959    7865.4092     1739.208     1320.867    1140.0218   -2373.4553   -917.84901     20.23371    20.007191    20.607188           90           90           90 
   67000    237.77823   -163.34642    -133.5025   -163.34642            0    675.39414    20.263658    20.152416    20.780047            0            0            0    8485.7742   -1240.1651    3340.0856    -73.73816   -1192.5721    -161.0412   -51.564633    20.263658    20.152416    20.780047           90           90           90 
   67500     239.0063   -163.64716    -133.6491   -163.64716            0    4809.8354    19.960746    20.254833    20.694289            0            0            0    8366.7339    8740.5645    2937.6594    2751.2822    775.87305   -16.582106    908.68218    19.960746    20.254833    20.694289           90           90           90 
   68000    233.39213   -163.26254   -133.96912   -163.26254            0    1701.0299    20.016075    20.289696    20.536225            0            0            0    8340.1736    472.59846    1521.1426    3109.3487   -622.36046   -946.71639   -350.96395    20.016075    20.289696    20.536225           90           90           90 
   68500    235.85093   -162.08322   -132.48119   -162.08322            0    888.19649    20.246387    20.196356    20.424438            0            0            0    8351.6187    4654.5255   -615.18395    -1374.752    528.74476    1453.6276    -3100.148    20.246387    20.196356    20.424438           90           90           90 
   69000    233.57977    -163.6773   -134.36033    -163.6773            0    163.54575    20.395401    20.145485    20.552876            0            0            0    8444.6675    3777.9181   -4278.2953    991.01438   -2872.8599     1300.008    1474.3026    20.395401    20.145485    20.552876           90           90           90 
   69500    234.88776   -164.04062   -134.55949   -164.04062            0    3870.0386    20.211528    20.081057    20.745458            0            0            0    8419.9351    5416.0938    3246.9145    2947.1075   -427.55057   -796.00384   -1634.7106    20.211528    20.081057    20.745458           90           90           90 
   70000    233.30943   -162.68664    -133.4036   -162.68664            0    1953.3924    19.953487    20.053885    20.652128            0            0            0    8263.8445    4754.0013   -1481.7808    2587.9567   -55.821606   -1099.5637    572.12538    19.953487    20.053885    20.652128           90           90           90 
   70500    239.45573   -164.26029   -134.20581   -164.26029            0    1897.4082     20.22057     20.23272    20.605077            0            0            0      8429.89     3380.169    1578.9981    733.05766     -623.767     1468.377     2430.564     20.22057     20.23272    20.605077           90           90           90 
   71000    237.67795   -163.41011   -133.57877   -163.41011            0    2651.9122    20.320744    20.189266    20.484199            0            0            0    8403.8663    2718.2667   -345.49513     5582.965    644.07106   -81.960185    211.46008    20.320744    20.189266    20.484199           90           90           90 
   71500    235.81331    -163.0531   -133.45579    -163.0531            0    3388.1207    20.208104    20.043218    20.505464            0            0            0    8305.4396    6719.6067    1706.2333    1738.5221   -285.53357   -1412.0798   -2019.8234    20.208104    20.043218    20.505464           90           90           90 
   72000    244.62716   -161.47164   -130.76809   -161.47164            0    -489.9767    20.180559    20.209739     20.66203            0            0            0    8426.8813    -181.5797   -355.64233   -932.70806   -2192.4798    230.83714    846.40856    20.180559    20.209739     20.66203           90           90           90 
   72500    229.35494   -161.31711   -132.53041   -161.31711            0   -1278.6535     20.18537    20.316977    20.672775            0            0            0    8478.0224    32.825654   -3079.2555   -789.53048    1206.5455    878.81288    231.81746     20.18537    20.316977    20.672775           90           90           90 
   73000    240.12363   -163.93954   -133.80124   -163.93954            0    4238.4265    20.150385    20.197597    20.476508            0            0            0    8333.7207    2808.5357    3914.2425    5992.5011    533.69683   -806.74695    115.62782    20.150385    20.197597    20.476508           90           90           90 
   73500    227.94438   -161.87432   -133.26466   -161.87432            0    902.96685      20.2327    20.156324    20.426388            0            0            0    8330.2252    885.47145     2548.549   -725.11995    1854.0673    584.81333    2799.6824      20.2327    20.156324    20.426388           90           90           90 
   74000    229.50934   -162.50084   -133.69476   -162.50084            0   -982.28115     20.34478    20.258241    20.651273            0            0            0    8511.4111    1210.3173      -3597.6    -559.5607    579.54696    398.35059    162.91888     20.34478    20.258241    20.651273           90           90           90 
   74500    231.65214   -162.20404   -133.12901   -162.20404            0    3016.2519    20.168356    20.054916    20.648319            0            0            0    8351.7225    3492.0415     2766.156    2790.5581   -44.305948   -19.560651   -614.05065    20.168356    20.054916    20.648319           90           90           90 
   75000    237.66259    -161.8635   -132.03409    -161.8635            0   -129.33767    20.157436    20.075256    20.707275            0            0            0    8379.5236    1610.5738   -2567.2405    568.65371   -1493.8673    388.12427   -1963.8986    20.157436    20.075256    20.707275           90           90           90 
   75500    240.58036   -164.23984   -134.04421   -164.23984            0    370.37249    20.264138    20.257953     20.60809            0            0            0    8459.8259    1113.7674   -608.94914    606.29918    1450.2826    -532.5265   -761.30017    20.264138    20.257953     20.60809           90           90           90 
   76000    238.64081   -162.73652   -132.78433   -162.73652            0    1326.2859    20.269996     20.31457    20.295689            0            0            0    8357.2826    2438.9405   -1272.9307    2812.8479   -327.23947   -194.67427    -185.0781    20.269996     20.31457    20.295689           90           90           90 
   76500    226.01559   -165.03174   -136.66416   -165.03174            0    3910.0888    20.146775    20.218823    20.329143            0            0            0    8280.9557    1164.2437    7341.3107    3224.7121    3114.7904    147.02321   -922.76797    20.146775    20.218823    20.329143           90           90           90 
   77000    222.57718    -164.4037   -136.46768    -164.4037            0    1576.9275    20.170807    20.134021    20.761837            0            0            0    8431.7859    4188.6659   -670.66283    1212.7795   -824.42811   -1262.9896   -1626.3768    20.170807    20.134021    20.761837           90           90           90 
   77500    236.15712   -162.61525   -132.97479   -162.61525            0     165.0733    20.179315    19.938424    20.995024            0            0            0    8447.2167   -125.77494    939.62043   -318.62558    -830.7607    1620.2309   -1098.9006    20.179315    19.938424    20.995024           90           90           90 
   78000    254.57006   -162.62642   -130.67492   -162.62642            0    2894.8473    20.282741    20.026517    20.797824            0            0            0    8447.9234     2624.712    1343.9239    4715.9061   -1279.1511    159.92799   -1657.8895    20.282741    20.026517    20.797824           90           90           90 
   78500    235.31121   -164.05085   -134.51656   -164.05085            0    5313.7767    20.233321    20.260611    20.400983            0            0            0     8363.168    5998.9719     6874.118    3068.2403    949.94992    863.45652   -436.25476    20.233321    20.260611    20.400983           90           90           90 
   79000    226.94955   -163.00537   -134.52057   -163.00537            0    2884.5014    20.137497    20.348355    20.310825            0            0            0    8322.6637    2580.9424    6044.2206    28.341165    772.54896   -1596.5592   -1588.5092    20.137497    20.348355    20.310825           90           90           90 
   79500    235.41453   -162.14643   -132.59917   -162.14643            0    2867.2291     20.20543    20.263272    20.547037            0            0            0    8412.5347    791.50463    2603.8264    5206.3561    471.15438   -1573.3205   -1243.7762     20.20543    20.263272    20.547037           90           90           90 
   80000    243.56075   -162.67011   -132.10041   -162.67011            0    1965.9582    20.224174    20.060066    20.772413            0            0            0    8427.3318    3370.5246    3616.0736   -1088.7235   -88.755613    -1814.713    368.61795    20.224174    20.060066    20.772413           90           90           90 
   80500    235.34226   -162.34672   -132.80853   -162.34672            0    1919.3119    20.143867    19.946603    20.606205            0            0            0    8279.6088    2591.8189    1055.1839    2110.9328   -494.05829    431.01506    1426.3866    20.143867    19.946603    20.606205           90           90           90 
   81000    232.40684    -162.3462   -133.17644    -162.3462            0    1962.0722    20.278167    20.222598    20.549955            0            0            0    8427.0683    3080.5988    1227.7313    1577.8865   -383.73036    1191.5482    1177.2064    20.278167    20.222598    20.549955           90           90           90 
   81500     234.4035   -162.88451   -133.46415   -162.88451            0     -584.947    20.338858    20.269327    20.536042            0            0            0     8466.085    745.32351   -2442.2336   -57.930914    2218.8947   -483.95895   -225.50532    20.338858    20.269327    20.536042           90           90           90 
   82000    232.73221   -163.56721   -134.35662   -163.56721            0    3851.0747    20.175326    20.122281    20.525215            0            0            0    8332.6946    3377.0242      4645.44      3530.76    571.15126   -509.54341   -136.44815    20.175326    20.122281    20.525215           90           90           90 
   82500    240.79897   -161.47246    -131.2494   -161.47246            0    5480.0623    20.059696    20.204737    20.581227            0            0            0    8341.5899    5920.6215    5091.1943    5428.3711     1366.346   -1243.3793    637.67206    20.059696    20.204737    20.581227           90           90           90 
   83000      236.166   -161.92172   -132.28015   -161.92172            0     950.3227    20.167181    20.341013    20.597456            0            0            0    8449.5066    2277.1568   -219.81924    793.63052    1153.9387   -2036.2935    1901.6896    20.167181    20.341013    20.597456           90           90           90 
   83500     238.5886   -162.55478   -132.60915   -162.55478            0    4070.3815    20.282047    20.113811    20.430783            0            0            0     8334.723    5026.6093    2605.7828    4578.7523   -777.74155   -2101.0369   -1733.0093    20.282047    20.113811    20.430783           90           90           90 
   84000    244.75256   -161.62255   -130.90326   -161.62255            0    1612.6155    20.386937    20.035399    20.512294            0            0            0    8378.4597    1066.6789    1535.8312    2235.3363    388.30599   -165.52214   -1254.4596    20.386937    20.035399    20.512294           90           90           90 
   84500    236.70072   -162.52609   -132.81741   -162.52609            0    2478.9038    20.240091    20.091599    20.561704            0            0            0    8361.5363    2467.2149    3677.2136    1292.2827     -1064.58    419.81015    2641.2563    20.240091    20.091599    20.561704           90           90           90 
   85000    237.29771   -163.23395   -133.45033   -163.23395            0   -94.906933      20.1201    20.328104    20.671648            0            0            0    8454.7759   -833.53841    659.52553   -110.70792    438.92845    1868.8023   -681.85552      20.1201    20.328104    20.671648           90           90           90 
   85500    244.33967   -161.86971   -131.20225   -161.86971            0    4016.0829     19.97695    20.204484     20.51054            0            0            0    8278.5457    5771.7916    3430.1743    2846.2828    2260.9915   -4665.9708      2683.12     19.97695    20.204484     20.51054           90           90           90 
   86000    227.86021   -161.28305   -132.68395   -161.28305            0   -617.66924    20.367383     20.17248    20.470351            0            0            0    8410.4609   -3413.5009   -492.43322    2052.9264   -1942.5572    2374.7983    -553.9962    20.367383     20.17248    20.470351           90           90           90 
   86500    238.59088   -163.91602    -133.9701   -163.91602            0    466.99252     20.44346    20.135988    20.375585            0            0            0    8387.5946    1000.0231    580.54069   -179.58621    832.91985    375.85827    212.14754     20.44346    20.135988    20.375585           90           90           90 
   87000    234.36061   -164.30972   -134.89474   -164.30972            0    2780.5878    20.098873     20.13189    20.483356            0            0            0    8288.1454    4199.3939    1947.1178    2195.2517   -1936.5793    3266.2917    916.90334    20.098873     20.13189    20.483356           90           90           90 
   87500    233.41967   -162.71026   -133.41338   -162.71026            0    873.85558    20.045605    20.240331    20.772573            0            0            0    8428.0493    1264.4575    1985.8275   -628.71829    1027.8014   -357.47724    2487.9818    20.045605    20.240331    20.772573           90           90           90 
   88000     234.8113   -162.10429   -132.63275   -162.10429            0     2526.747    20.116807    20.115066    20.720283            0            0            0    8384.4815    2492.1982    2806.5631    2281.4796    282.85273   -694.14391    919.95189    20.116807    20.115066    20.720283           90           90           90 
   88500    234.09285   -163.19409   -133.81272   -163.19409            0    2152.0267    20.288312    20.176404    20.577013            0            0            0     8423.101    4249.9258    2112.2009    93.953318    1895.5208   -1023.2997    498.32367    20.288312    20.176404    20.577013           90           90           90 
   89000    222.97711   -163.49251    -135.5063   -163.49251            0     867.8493    20.221011    20.255562    20.353489            0            0            0    8336.5438    -966.6893    2441.9808    1128.2564   -1401.5527   -1247.4931    1187.9506    20.221011    20.255562    20.353489           90           90           90 
   89500    223.60364   -163.77872   -135.71387   -163.77872            0   -39.250492    20.151253    20.293913    20.360656            0            0            0     8326.445   -2389.0234    1452.2453    819.02661   -17.171788   -1188.4745    708.30799    20.151253    20.293913    20.360656           90           90           90 
   90000    234.46927   -164.51813   -135.08951   -164.51813            0    2548.7459    20.220557    20.040026    20.543176            0            0            0     8324.516    2505.2289   -539.39588    5680.4046   -324.84914   -2522.2959    302.76462    20.220557    20.040026    20.543176           90           90           90 
   90500     236.3256   -162.76758   -133.10597   -162.76758            0    3382.2089    20.275089    19.924912    20.809586            0            0            0    8406.6436    5551.0995    4069.4255    526.10159    36.681811   -1124.3125   -511.73394    20.275089    19.924912    20.809586           90           90           90 
   91000    239.34224   -163.27124   -133.23101   -163.27124            0    924.97431    20.182311      20.1051    20.740772            0            0            0    8415.9283    1686.7182    908.87947    179.32524     357.1722    1613.9988    1109.5447    20.182311      20.1051    20.740772           90           90           90 
   91500    226.31415   -164.56988   -136.16483   -164.56988            0     4327.095    20.053374    20.294406    20.394526            0            0            0    8299.9867    7196.2125     2566.963    3218.1093   -279.92075    77.565155    605.12955    20.053374    20.294406    20.394526           90           90           90 
   92000    234.23338   -164.06994   -134.67093   -164.06994            0     472.5025    20.223539     20.40298    20.376894            0            0            0    8407.9237    721.01475    -373.1637    1069.6565   -198.18626    3635.5041   -1326.4983    20.223539     20.40298    20.376894           90           90           90 
   92500    226.49363   -162.43648    -134.0089   -162.43648            0    3032.0467    20.270219    20.132603    20.488021            0            0            0    8361.0031    1466.5407    4155.6819    3473.9175   -589.63953   -2056.3271     1088.786    20.270219    20.132603    20.488021           90           90           90 
   93000    231.44632   -162.72368   -133.67448   -162.72368            0    1276.6203     20.28159    19.979529    20.743576            0            0            0    8405.6416   -2242.0867    4347.4779    1724.4696    709.52302    3084.6462   -2012.6412     20.28159    19.979529    20.743576           90           90           90 
   93500    229.58253   -162.83722   -134.02195   -162.83722            0    1188.7798    20.155209     20.03775    20.749641            0            0            0    8380.0545    4846.9181   -929.87702   -350.70176    875.93303   -1493.6076   -1313.1945    20.155209     20.03775    20.749641           90           90           90 
   94000    235.34683   -163.70503   -134.16627   -163.70503            0    2946.4533    20.112856    20.169768     20.61073            0            0            0    8361.1887    3687.4373    982.92749    4168.9951    2197.2707    565.98481    891.90475    20.112856    20.169768     20.61073           90           90           90 
   94500    238.10882   -163.92714   -134.04172   -163.92714            0    2460.6253     20.21265    20.344025    20.455139            0            0            0    8411.2894    2400.1337    562.59583    4419.1464   -1388.1501   -113.88013   -1314.6034     20.21265    20.344025    20.455139           90           90           90 
   95000    223.87593    -163.5743   -135.47527    -163.5743            0    2696.2953    20.160232    20.245283    20.319786            0            0            0    8293.5127    3815.0728      1258.08    3015.7332     610.1202    1091.8413    1825.0705    20.160232    20.245283    20.319786           90           90           90 
   95500    230.51557   -162.26504   -133.33267   -162.26504            0    232.42997    20.269432    20.179679     20.50906            0            0            0    8388.8337    1118.9725   -256.18689   -165.49572   -854.88561    201.30578    186.41848    20.269432    20.179679     20.50906           90           90           90 
   96000    244.36051   -162.80394   -132.13386   -162.80394            0    2485.8373    20.226412    20.037104    20.715028            0            0            0    8395.3596     3024.027    3013.3018    1420.1829    1398.3159    1076.1427    660.22168    20.226412    20.037104    20.715028           90           90           90 
   96500    234.30627   -162.05343   -132.64527   -162.05343            0    2798.1776     20.14159    20.021955     20.77926            0            0            0    8379.7353    315.16591    4685.6866    3393.6803   -2408.2351   -1165.6417   -3393.9437     20.14159    20.021955     20.77926           90           90           90 
   97000    244.92529   -164.07116    -133.3302   -164.07116            0    1826.5124      20.1167    20.181551    20.577402            0            0            0    8354.1415    3440.3989     1121.851    917.28737    53.728281   -2778.7485   -2680.1796      20.1167    20.181551    20.577402           90           90           90 
   97500    236.26708   -162.84639   -133.19214   -162.84639            0     3975.623    20.182414    20.323364    20.303589            0            0            0    8328.0154    4231.1875    3342.6076    4353.0738    21.862011    1841.3322   -4021.3331    20.182414    20.323364    20.303589           90           90           90 
   98000    216.76119   -161.79002   -134.58398   -161.79002            0    191.93198    20.331375     20.36683    20.421258            0            0            0      8456.15    1173.2258   -3165.6909     2568.261   -101.04962   -1487.6892    1304.2962    20.331375     20.36683    20.421258           90           90           90 
   98500    236.13105   -163.56326   -133.92608   -163.56326            0    4455.3867    20.166397    20.004357    20.550607            0            0            0    8290.4397    3114.6549    4989.5186    5261.9865   -1484.5682   -847.98513     802.6709    20.166397    20.004357    20.550607           90           90           90 
   99000    231.64298   -163.06327   -133.98939   -163.06327            0    2462.2967    20.201542    20.007535    20.744156            0            0            0    8384.4365    835.10419    2090.4135    4461.3725     211.0566    1142.3827    1340.5049    20.201542    20.007535    20.744156           90           90           90 
   99500    247.22628   -162.64673   -131.61696   -162.64673            0   -1769.7966    20.243889    20.163858    20.767694            0            0            0     8477.267   -4050.3228    1078.2107   -2337.2779   -644.51292    383.78315    848.47533    20.243889    20.163858    20.767694           90           90           90 
  100000    234.61727    -162.2647   -132.81751    -162.2647            0    1997.7524    20.201648    20.116192     20.58744            0            0            0    8366.3283   -1437.2117    4522.0261     2908.443   -376.38881    629.06542   -1065.2885    20.201648    20.116192     20.58744           90           90           90 
  100500    227.54688   -161.41027   -132.85049   -161.41027            0      3394.59    20.243846    20.213302    20.523681            0            0            0    8398.1871    2432.3211    4735.1115    3016.3373    -808.2795    2015.9735    2721.4902    20.243846    20.213302    20.523681           90           90           90 
  101000    235.78214   -163.69973   -134.10634   -163.69973            0    3514.9536    20.237361    20.207279    20.417783            0            0            0    8349.6886    5425.7528    3283.1049     1836.003   -1191.8794    -22.53391   -1060.2934    20.237361    20.207279    20.417783           90           90           90 
  101500    228.91597   -162.57173   -133.84012   -162.57173            0    262.37139    20.328759    20.188453    20.496707            0            0            0    8411.9753   -1292.5462    782.21029    1297.4501    93.367131   -3682.7361   -390.17211    20.328759    20.188453    20.496707           90           90           90 
  102000    236.85263   -163.32496    -133.5972   -163.32496            0    3680.2278     20.15483    20.148465    20.612885            0            0            0    8370.6636    1248.2652    7678.2362    2114.1819   -84.257628   -330.62783     71.37928     20.15483    20.148465    20.612885           90           90           90 
  102500    232.95549   -163.08987   -133.85126   -163.08987            0    3250.3247    20.025217     20.15954    20.615094            0            0            0    8322.2961    1577.4227     3438.493    4735.0585    1015.2704    3444.6844   -1611.6008    20.025217     20.15954    20.615094           90           90           90 
  103000    236.00997   -162.41186   -132.78987   -162.41186            0    4522.4363    20.224443    20.313844    20.589303            0            0            0    8458.8304    6454.9357     2624.176    4488.1972   -848.76647   -150.75698    2257.2357    20.224443    20.313844    20.589303           90           90           90 
  103500    230.45124   -163.42432   -134.50002   -163.42432            0    2520.6321    20.252071    20.139691     20.45077            0            0            0    8341.2651   -374.90577    5545.1102    2391.6917    1836.9994   -1198.8918   -1718.6229    20.252071    20.139691     20.45077           90           90           90 
  104000    242.44402   -163.39146   -132.96192   -163.39146            0    442.36818     20.29359    20.124561    20.545261            0            0            0     8390.676    1461.3943   -114.16215   -20.127598   -1824.1717    1857.2777    826.47609     20.29359    20.124561    20.545261           90           90           90 
  104500    230.58308   -163.21297   -134.27212   -163.21297            0    222.44464    20.185246     20.08715    20.587712            0            0            0    8347.5772    1685.7046   -410.94835   -607.42233    1480.3637    -60.86671    2397.3943    20.185246     20.08715    20.587712           90           90           90 
  105000    235.17862   -161.74042   -132.22278   -161.74042            0    3001.7651    20.110325    20.256432    20.529327            0            0            0    8362.8969    4397.0333    747.93332    3860.3287   -1691.1793    1178.5916   -2305.5037    20.110325    20.256432    20.529327           90           90           90 
  105500    241.28873   -162.26296   -131.97843   -162.26296            0    2195.8151    20.225729    20.367051    20.506965            0            0            0    8447.6075    6439.5522   -2255.9363    2403.8295    202.26111    867.02291   -2229.4847    20.225729    20.367051    20.506965           90           90           90 
  106000    239.23358      -162.92   -132.89341      -162.92            0    1993.6033    20.199058    20.125665    20.448759            0            0            0    8312.8191   -783.91767    7241.1562   -476.42866    1102.6032    213.89709   -469.40515    20.199058    20.125665    20.448759           90           90           90 
  106500    230.93659   -162.29751   -133.31229   -162.29751            0    1651.2602    20.269029    20.156271    20.687854            0            0            0    8451.9821    4392.0218   -790.61453    1352.3734   -118.14774   -1154.4417   -1512.6258    20.269029    20.156271    20.687854           90           90           90 
  107000    234.53352   -163.02511   -133.58843   -163.02511            0    4290.0815    20.131218    20.151541    20.642338            0            0            0    8374.0817    5353.9968    3948.0608    3568.1868      721.598   -168.07114    -436.3916    20.131218    20.151541    20.642338           90           90           90 
  107500    235.06353   -162.57992   -133.07672   -162.57992            0   -713.43242     20.21422    20.188378    20.588241            0            0            0    8401.9033   -4797.0485    3021.4402   -364.68899   -1035.0324   -993.26363    1830.8979     20.21422    20.188378    20.588241           90           90           90 
  108000     235.6549   -161.84297   -132.26555   -161.84297            0     2943.971    20.310989    20.086448    20.438107            0            0            0    8338.2497    3104.6508    3207.2275    2520.0346   -880.46835    1811.6225    1256.2904    20.310989    20.086448    20.438107           90           90           90 
  108500    234.68623   -161.23132   -131.77548   -161.23132            0    4582.7043    20.299577    20.210548    20.522815            0            0            0    8419.8041    5569.3726    3439.7133    4739.0269   -611.08828   -526.32473    188.43782    20.299577    20.210548    20.522815           90           90           90 
  109000    228.29349   -161.69929    -133.0458   -161.69929            0     1524.866    20.046177    20.417396    20.633188            0            0            0    8444.9725    2666.4614   -1413.7826    3321.9192    -2843.379       387.72   -497.33541    20.046177    20.417396    20.633188           90           90           90 
  109500    228.98442   -161.59383   -132.85363   -161.59383            0    3516.2957    19.959515    20.232487    20.572165            0            0            0      8307.67    1681.8189    7153.6725    1713.3958   -293.63406    -230.8482    344.47688    19.959515    20.232487    20.572165           90           90           90 
  110000    235.05948   -162.81213   -133.30944   -162.81213            0    4669.1323    20.314054    20.118074     20.54772            0            0            0    8397.4346    1676.7089    7681.4866    4649.2013   -1002.7836   -2187.7935    878.91169    20.314054    20.118074     20.54772           90           90           90 
  110500    231.03449   -163.43353   -134.43602   -163.43353            0    2230.6066    20.461178     20.07261    20.416395            0            0            0    8385.2026    1951.5846    2646.3475    2093.8877    441.74146   -552.70004    2080.9332    20.461178     20.07261    20.416395           90           90           90 
  111000    231.22269   -162.02415   -133.00302   -162.02415            0    4216.3271    20.227105    20.149619    20.425838            0            0            0    8324.9272    3037.2649    5378.6822    4233.0342   -1389.0391    1627.6609    1521.9986    20.227105    20.149619    20.425838           90           90           90 
  111500    237.95802   -163.44037   -133.57387   -163.44037            0    4793.6278    20.058709    20.216337    20.715589            0            0            0     8400.453    6762.0018    2263.5998    5355.2819   -679.00341   -14.344934    -1271.189    20.058709    20.216337    20.715589           90           90           90 
  112000    228.44768   -162.02921   -133.35638   -162.02921            0    4629.8827    20.112455    20.106635    20.748688            0            0            0    8390.6408    915.38051    10051.776    2922.4916    415.50626   -1406.9586   -3094.1483    20.112455    20.106635    20.748688           90           90           90 
[...]
  373000    223.01125   -164.43647   -136.44597   -164.43647            0    2209.1603    20.135493    20.233873    20.568834            0            0            0    8380.1338    1350.7255    3402.6384    1874.1169    593.39242    213.18929    601.45578    20.135493    20.233873    20.568834           90           90           90 
  373500    225.99185   -162.40589   -134.04129   -162.40589            0    4211.1581    20.196852    20.288756    20.272336            0            0            0    8306.9751    5235.6237    1669.3806    5728.4701    134.30001    696.31835    628.90646    20.196852    20.288756    20.272336           90           90           90 
  374000    232.61686   -161.75176   -132.55564   -161.75176            0    1786.3114    20.269243    20.197298    20.334131            0            0            0    8324.4669    35.127086    2594.3225    2729.4847    914.97391    1062.0687    78.145179    20.269243    20.197298    20.334131           90           90           90 
  374500    239.99748   -161.35583   -131.23336   -161.35583            0    3796.0439    20.333074    20.199428    20.718766            0            0            0     8509.538    1393.3258    6212.3819     3782.424    622.30168   -555.65236   -1136.4457    20.333074    20.199428    20.718766           90           90           90 
  375000    245.65746   -161.21517   -130.38231   -161.21517            0     128.7894    20.158846    20.091422    20.801613            0            0            0    8425.0665     2292.079   -1663.3871   -242.32369     -1621.37    1187.6273    2988.2988    20.158846    20.091422    20.801613           90           90           90 
  375500    238.76666   -163.13472   -133.16673   -163.13472            0    4319.2387    20.080034    20.081351    20.598144            0            0            0    8305.8766    3719.1687     7027.181    2211.3665   -1335.9867    1352.3143   -687.91171    20.080034    20.081351    20.598144           90           90           90 
  376000    237.01174   -162.08703   -132.33931   -162.08703            0      1834.02    20.230138    20.261225    20.539444            0            0            0    8418.8589    643.01747    3304.8609    1554.1815    245.77751    -1434.138   -51.928713    20.230138    20.261225    20.539444           90           90           90 
  376500    243.63976   -162.14059   -131.56098   -162.14059            0    2647.3255     20.25799    20.246456    20.490951            0            0            0    8404.4151    1693.6032      4016.66    2231.7134     664.4193    1267.8189    -2596.719     20.25799    20.246456    20.490951           90           90           90 
  377000    233.31962   -163.95263   -134.66832   -163.95263            0    2682.8903    20.212095    20.055834    20.537213            0            0            0    8325.1788    3228.0543    4527.0934    293.52315   -697.05625   -4263.6287   -1407.0144    20.212095    20.055834    20.537213           90           90           90 
  377500    227.58543   -163.02744   -134.46283   -163.02744            0   -576.60446    20.262834    20.108916     20.68274            0            0            0    8427.4644   -863.99843    1019.7806   -1885.5955   -801.39854   -342.04091    154.21073    20.262834    20.108916     20.68274           90           90           90 
  378000    235.74596   -162.72796   -133.13911   -162.72796            0    3643.5021    20.201389    20.113107    20.529841            0            0            0    8341.5346    3974.8364     3522.979    3432.6909    772.45123   -2381.7026    343.27461    20.201389    20.113107    20.529841           90           90           90 
  378500    226.84676   -163.17544   -134.70354   -163.17544            0   -338.35735    20.305189    20.132292    20.405052            0            0            0    8341.3811   -338.30724    879.81409   -1556.5789    1108.4651   -776.80979    -1586.828    20.305189    20.132292    20.405052           90           90           90 
  379000    229.35691   -161.94547   -133.15852   -161.94547            0    1260.1826     20.27055    20.328519    20.420258            0            0            0    8414.5808    530.28362    1172.8622    2077.4019    153.18387   -1595.0113    372.28196     20.27055    20.328519    20.420258           90           90           90 
  379500    232.71298   -163.03009   -133.82191   -163.03009            0    2871.0928    19.952405    20.318867    20.435452            0            0            0    8284.7422    5142.2502    1294.9223     2176.106    1706.4032    1761.9336   -335.10393    19.952405    20.318867    20.435452           90           90           90 
  380000    221.10601   -161.88026   -134.12889   -161.88026            0    1290.9939    20.084422    20.327886    20.683447            0            0            0    8444.5104    1037.0455    1220.2772    1615.6589    1610.6645    2268.8301    161.44667    20.084422    20.327886    20.683447           90           90           90 
  380500    225.62689   -162.62457   -134.30578   -162.62457            0    2556.4462    20.221398     19.98973    20.674841            0            0            0    8357.1899    692.17389    3725.4426    3251.7221    1044.9126   -2786.2757   -538.20323    20.221398     19.98973    20.674841           90           90           90 
  381000    233.81958   -163.36717    -134.0201   -163.36717            0    1446.0964    20.348327    19.943143    20.476843            0            0            0     8309.699     4058.875   -1040.5256    1319.9399    389.64584    1230.1876   -1796.8625    20.348327    19.943143    20.476843           90           90           90 
  381500    238.27079     -160.756   -130.85025     -160.756            0    113.05119    20.292942    20.301789    20.439475            0            0            0    8420.7167   -1744.1361    2174.2434   -90.953719    2396.5116   -2441.3056    -1610.193    20.292942    20.301789    20.439475           90           90           90 
  382000    235.65109   -162.46242   -132.88548   -162.46242            0   -1143.4839    20.130998      20.3809     20.56337            0            0            0    8436.9011   -3458.1587   -256.40633    284.11323    492.93214   -796.56542    351.27299    20.130998      20.3809     20.56337           90           90           90 
  382500    243.94605   -161.68489   -131.06683   -161.68489            0    5204.5604    20.084798    20.125055    20.601083            0            0            0    8327.1158    7824.4526    2886.8656    4902.3631    5.2734085    90.745347     710.8653    20.084798    20.125055    20.601083           90           90           90 
  383000    235.80837   -161.57032   -131.97364   -161.57032            0   -235.96087     20.24832    20.091822    20.739947            0            0            0    8437.5423    1577.7754   -2798.9035    513.24543    1140.0703    -1326.563    1662.7644     20.24832    20.091822    20.739947           90           90           90 
  383500    237.17596   -160.00259   -130.23425   -160.00259            0    1640.8314    20.240025    20.184236    20.760309            0            0            0    8481.1977    2391.6576    194.74456    2336.0919    573.54962    1449.8542    -951.2072    20.240025    20.184236    20.760309           90           90           90 
  384000    243.94078   -163.41508   -132.79769   -163.41508            0    2384.4503    20.160254    20.117189    20.594934            0            0            0    8352.6386    2300.5576     3146.902    1705.8913    -607.8926    954.27393   -149.39467    20.160254    20.117189    20.594934           90           90           90 
  384500    234.61743    -163.3083   -133.86109    -163.3083            0     3320.956    20.236665    20.100506    20.368461            0            0            0    8285.2222   -140.51225    3461.2811    6642.0991   -891.68547     383.9127     539.5948    20.236665    20.100506    20.368461           90           90           90 
  385000    216.60744   -161.50846   -134.32171   -161.50846            0    1740.6317    20.369068    20.217608    20.447742            0            0            0    8420.6629     112.2126    3373.7033    1735.9793    314.93024     377.6724    220.06995    20.369068    20.217608    20.447742           90           90           90 
  385500    225.27286   -162.92873   -134.65437   -162.92873            0    3578.4993    20.117068    20.194424    20.495786            0            0            0    8326.4662    698.78725    7572.7133    2463.9974   -300.81615    -552.8107     687.6552    20.117068    20.194424    20.495786           90           90           90 
  386000    234.77386   -163.10706   -133.64021   -163.10706            0   -1226.3231     20.02115    20.304159    20.708834            0            0            0    8418.4025   -2399.5068    567.88592   -1847.3485    370.47542    1338.4203   -3189.7786     20.02115    20.304159    20.708834           90           90           90 
  386500    240.39385   -162.48726   -132.31505   -162.48726            0    4928.5391    20.109373    20.183047     20.64559            0            0            0    8379.3927    4947.2503    4178.5062    5659.8608    37.135829    873.78478     70.04704    20.109373    20.183047     20.64559           90           90           90 
  387000    243.41756   -163.93559   -133.38386   -163.93559            0    2630.0317    20.353784    20.078052    20.559711            0            0            0    8402.0209     462.3796     6296.858    1130.8576    606.72649    685.77158   -149.22351    20.353784    20.078052    20.559711           90           90           90 
  387500    235.55925   -162.62014   -133.05472   -162.62014            0    2740.0815    20.332586    20.080945    20.506622            0            0            0     8372.803    1970.8868    3225.2855    3024.0721   -1552.9318   -311.68831    2047.5963    20.332586    20.080945    20.506622           90           90           90 
  388000    230.79357   -164.35299   -135.38572   -164.35299            0    693.64829    20.090609    20.200404    20.652128            0            0            0    8381.4272    1043.5994    1770.8285   -733.48308   -912.64988   -1124.0875     1409.453    20.090609    20.200404    20.652128           90           90           90 
  388500    229.67462   -164.45406   -135.62723   -164.45406            0   -870.86234    19.964459    20.188166    20.733644            0            0            0    8356.6083    2305.2303   -3726.0655   -1191.7519   -1737.9158    2278.5891   -3135.0249    19.964459    20.188166    20.733644           90           90           90 
  389000    235.42759   -164.44122   -134.89233   -164.44122            0    1912.6223    20.161623    20.120575    20.588532            0            0            0     8352.015    935.15477    3592.1875    1210.5246   -720.34678   -299.72678   -181.17492    20.161623    20.120575    20.588532           90           90           90 
  389500    229.61359    -163.5832   -134.76403    -163.5832            0    1065.8805    20.274025    20.219159    20.346186            0            0            0    8340.3846     940.6219    1040.4152    1216.6043    1144.3309   -823.66667    629.45168    20.274025    20.219159    20.346186           90           90           90 
  390000    226.06924    -163.9432   -135.56889    -163.9432            0   -63.917192    20.140096    20.295342    20.315713            0            0            0    8304.0505   -4283.7897    1971.2702    2120.7679   -659.55095    1250.2094   -1944.0481    20.140096    20.295342    20.315713           90           90           90 
  390500    237.72371   -163.05919   -133.22211   -163.05919            0   -184.55746    20.092035    20.177784    20.697663            0            0            0    8391.0965    3903.2578   -1056.2321    -3400.698   -976.43911    253.37343   -781.28482    20.092035    20.177784    20.697663           90           90           90 
  391000    241.37671    -162.0288   -131.73322    -162.0288            0    -577.3907     20.23009    19.925539    20.995245            0            0            0    8463.0876   -1239.2555   -620.61354    127.69696     -828.105   -622.64124   -2219.8366     20.23009    19.925539    20.995245           90           90           90 
  391500    246.05243   -160.79474   -129.91231   -160.79474            0     993.6098    20.271384    19.980964    20.750519            0            0            0    8404.8273   -1280.9019    4994.8388   -733.10747    1821.6006    1729.9918   -575.35049    20.271384    19.980964    20.750519           90           90           90 
  392000    232.27749   -164.88156   -135.72804   -164.88156            0    807.31084    20.193835    20.338426    20.359289            0            0            0    8361.7801   -557.59819   -456.59288    3436.1236   -1366.3661    420.58705    3227.2763    20.193835    20.338426    20.359289           90           90           90 
  392500    231.55463    -164.0957   -135.03291    -164.0957            0    3353.0843    20.093441    20.343389    20.249472            0            0            0    8277.3499    1993.0274    2729.0961    5337.1294   -4.0643366    1067.1025    830.23782    20.093441    20.343389    20.249472           90           90           90 
  393000    238.48776   -163.02704   -133.09406   -163.02704            0    5862.6726     20.21458    20.135056    20.517049            0            0            0    8350.8842    6036.7154    5600.0505    5951.2519   -8.3033899     -411.366   -131.31796     20.21458    20.135056    20.517049           90           90           90 
  393500    248.30396   -161.36877   -130.20375   -161.36877            0    2162.6108    20.244912    20.105938    20.722112            0            0            0    8434.7897    3552.8395    2424.5058    510.48705   -467.23193   -957.32947   -229.48603    20.244912    20.105938    20.722112           90           90           90 
  394000    227.61466   -162.29345   -133.72517   -162.29345            0    2795.4575    20.168629    20.072951    20.625254            0            0            0    8350.0079    6521.5517   -986.16757    2850.9885   -258.88678   -883.32475   -759.84317    20.168629    20.072951    20.625254           90           90           90 
  394500    226.44259   -162.84128   -134.42011   -162.84128            0    1217.5023    20.226423    20.138602    20.539955            0            0            0    8366.5788    2685.5269     1140.286   -173.30619      -565.79    808.35046   -1914.9315    20.226423    20.138602    20.539955           90           90           90 
  395000    240.06595   -162.98823   -132.85716   -162.98823            0    3339.4127    20.222202    20.190083    20.403005            0            0            0    8330.3008     3651.195    2744.5285    3622.5148   -639.27951   -196.49845    -1089.993    20.222202    20.190083    20.403005           90           90           90 
  395500    230.43979   -163.91345   -134.99058   -163.91345            0    1549.2961    20.259791    20.279884     20.45002            0            0            0    8402.2223    4375.5237    689.15565   -416.79107   -262.84021   -1032.2962     1106.021    20.259791    20.279884     20.45002           90           90           90 
  396000    232.14743   -163.54893   -134.41174   -163.54893            0     1897.542    20.150069    20.126538    20.467989            0            0            0    8300.8158    2795.5585   -718.93776    3616.0053    326.65726   -4340.6882    229.47125    20.150069    20.126538    20.467989           90           90           90 
  396500    225.04763   -163.66616   -135.42008   -163.66616            0    2008.1411    20.166345    20.130034    20.601849            0            0            0    8363.3045    3416.9361    1477.0887    1130.3986    401.66072    1991.8703   -1708.8187    20.166345    20.130034    20.601849           90           90           90 
  397000    226.11788   -162.13864   -133.75822   -162.13864            0    1672.6352    20.227789    20.225372    20.666025            0            0            0    8454.7712    1710.1696    1418.8835    1888.8526   -784.64379   -935.85664    -1431.208    20.227789    20.225372    20.666025           90           90           90 
  397500    236.37731   -162.87908   -133.21099   -162.87908            0    4386.7095    20.145919    20.110327    20.399634            0            0            0    8264.7285    2478.7861    5663.3878    5017.9545    1484.7674    206.34999   -958.81631    20.145919    20.110327    20.399634           90           90           90 
  398000    235.90955   -163.25418    -133.6448   -163.25418            0    423.62795    20.300416    20.149942    20.385528            0            0            0    8338.7449   -502.65691    520.43558    1253.1052    518.17177     2398.003   -1294.9677    20.300416    20.149942    20.385528           90           90           90 
  398500    235.33484   -162.10882   -132.57157   -162.10882            0    3656.6885     20.33058    20.228863    20.436284            0            0            0    8404.7187    -236.7251    6100.3419    5106.4487   -1331.7576   -296.38023   -317.88268     20.33058    20.228863    20.436284           90           90           90 
  399000    223.12237   -164.57844   -136.57399   -164.57844            0    2595.8113    20.049855    20.146281    20.465226            0            0            0    8266.5193    329.11952    4738.3095    2720.0047    -161.4359    463.88495   -318.95514    20.049855    20.146281    20.465226           90           90           90 
  399500    230.49255   -163.39377   -134.46428   -163.39377            0    155.41317    20.082917    20.249292    20.664593            0            0            0    8403.5638    2706.1486    -1236.705   -1003.2041    207.01264    1480.9463   -1695.6721    20.082917    20.249292    20.664593           90           90           90 
  400000    224.41031   -163.23676   -135.07067   -163.23676            0     2034.333    20.178465    20.173264    20.535093            0            0            0     8359.128    1071.0256    4535.0892    496.88422   -339.04034   -1320.4178   -758.70821    20.178465    20.173264    20.535093           90           90           90 
Loop time of 2439.41 on 1 procs for 400000 steps with 972 atoms

Performance: 7.084 ns/day, 3.388 hours/ns, 163.974 timesteps/s
71.4% CPU use with 1 MPI tasks x 1 OpenMP threads

MPI task timing breakdown:
Section |  min time  |  avg time  |  max time  |%varavg| %total
---------------------------------------------------------------
Pair    | 2170.3     | 2170.3     | 2170.3     |   0.0 | 88.97
Bond    | 0.044559   | 0.044559   | 0.044559   |   0.0 |  0.00
Neigh   | 240.32     | 240.32     | 240.32     |   0.0 |  9.85
Comm    | 9.6515     | 9.6515     | 9.6515     |   0.0 |  0.40
Output  | 2.1298     | 2.1298     | 2.1298     |   0.0 |  0.09
Modify  | 15.631     | 15.631     | 15.631     |   0.0 |  0.64
Other   |            | 1.37       |            |       |  0.06

Nlocal:        972.000 ave         972 max         972 min
Histogram: 1 0 0 0 0 0 0 0 0 0
Nghost:        4573.00 ave        4573 max        4573 min
Histogram: 1 0 0 0 0 0 0 0 0 0
Neighs:         0.00000 ave           0 max           0 min
Histogram: 1 0 0 0 0 0 0 0 0 0
FullNghs:      243058.0 ave      243058 max      243058 min
Histogram: 1 0 0 0 0 0 0 0 0 0

Total # of neighbors = 243058
Ave neighs/atom = 250.05967
Ave special neighs/atom = 0.0000000
Neighbor list builds = 40000
Dangerous builds not checked

unfix		3
unfix		2

write_data	data.final.${pid}
write_data	data.final.0
System init for write_data ...

write_restart   restart.lmp.${pid}
write_restart   restart.lmp.0
System init for write_restart ...
Total wall time: 0:40:45
