LAMMPS data file via write_data, version 29 Sep 2021, timestep = 400000

1008 atoms
2 atom types

0.14419540461130076 18.255359595386942 xlo xhi
-0.043787627242798166 22.614176627242017 ylo yhi
0.0899703001402763 19.415745699856934 zlo zhi
0.03396100770982211 -6.887480712515504 0.14750422843130268 xy xz yz

Masses

1 1.008
2 15.999

Atoms # full

1 0 1 0 6.61715070885372 0.9664329553385587 4.925746942947992 0 0 0
2 0 2 0 6.942706417003755 1.665159388833693 5.510749114818382 0 0 0
3 0 2 0 5.669118148368599 0.9523151442936671 5.0397966250572965 0 0 0
4 0 1 0 3.873348678751647 0.9053775474688248 5.267448629721545 0 0 0
5 0 2 0 3.291451874210791 0.2255998808239682 4.937552528764622 0 0 0
6 0 2 0 3.7272697196538527 1.7025781370414426 4.704652039332323 0 0 0
7 0 1 0 -0.8428936727838858 6.3287755916182125 4.878691577950648 0 0 0
8 0 2 0 -0.5731205547527407 6.166925332246333 5.795143540700976 0 0 0
9 0 2 0 -0.859106711482836 5.498098686391467 4.385210552563042 0 0 0
10 0 1 0 2.0130137149524154 6.527130106401593 4.9374832393066725 0 0 0
11 0 2 0 2.1166506413523245 5.658781123766237 5.3867808591944355 0 0 0
12 0 2 0 1.029431105105617 6.6972171166692185 4.906685910981625 0 0 0
13 0 1 0 5.067089105155318 5.188475933241314 9.481477198102892 0 0 0
14 0 2 0 4.086605802683376 5.06291746974589 9.596797735441568 0 0 0
15 0 2 0 5.3099870855063775 5.827141433706357 10.14185396309908 0 0 0
16 0 1 0 5.225697658696137 5.097057318799509 0.28564380502832104 0 0 0
17 0 2 0 -0.7539847445477816 5.013571590369471 19.33361888964333 0 0 -1
18 0 2 0 4.672536749791201 4.303265104862586 0.1277521471080981 0 0 0
19 0 1 0 -5.704203637675043 2.890109254635751 19.31630287547487 0 0 -1
20 0 2 0 -5.816989919122585 2.1795869113854813 18.657410912968338 0 0 -1
21 0 2 0 1.1019914129290058 2.250462767567537 0.8114596639026392 0 0 0
22 0 1 0 0.4944121033776194 2.5727833431912197 9.497823085786392 0 0 0
23 0 2 0 0.6956607535788919 1.7459279724140282 10.021377818469 0 0 0
24 0 2 0 1.1415223008487483 3.2408869975306387 9.668161639925 0 0 0
25 0 1 0 4.713599372331477 6.300558154695736 7.07954383541232 0 0 0
26 0 2 0 4.791480427202657 5.78820387787843 6.285795659290825 0 0 0
27 0 2 0 5.084929507260865 5.7996488591575925 7.811418909662948 0 0 0
28 0 1 0 5.8829156840289505 6.308840696467917 2.612594973096051 0 0 0
29 0 2 0 5.218312533720992 6.9242600802522425 2.4295284808134565 0 0 0
30 0 2 0 5.682085066275901 5.5587347432979675 2.028176956819394 0 0 0
31 0 1 0 1.2883021722613466 0.9246115936631261 2.1944654253211904 0 0 0
32 0 2 0 1.250790142357286 1.3703626370600688 3.0748087761967997 0 0 0
33 0 2 0 0.5793411990713936 0.2937834989137901 2.281000732195203 0 0 0
34 0 1 0 -0.009458795028228106 1.3324178518954766 6.915436826688026 0 0 0
35 0 2 0 0.2216220937774156 1.9532493560447106 7.595686665134664 0 0 0
36 0 2 0 -0.9460864010546217 1.1285606952186649 7.111475214689526 0 0 0
37 0 1 0 6.100506947047293 2.316756602275266 2.5919273080418206 0 0 0
38 0 2 0 6.62608489708333 1.8514591000902723 1.8900705028560343 0 0 0
39 0 2 0 6.46283703915161 1.9342811116514043 3.440386441548031 0 0 0
40 0 1 0 3.96353715905898 2.7069288410579397 7.335057268738688 0 0 0
41 0 2 0 3.954331569366941 1.8772364511816975 6.794979231865655 0 0 0
42 0 2 0 3.976246048772091 2.360445020630109 8.268102814206177 0 0 0
43 0 1 0 -0.3551857503604081 5.220961684513297 7.272341154209749 0 0 0
44 0 2 0 -0.5020780504452724 5.412409101399068 8.232724965800104 0 0 0
45 0 2 0 0.4336843369745411 4.669115215936139 7.217087772440739 0 0 0
46 0 1 0 1.8194142080916207 4.697980817925672 2.5146597307660095 0 0 0
47 0 2 0 1.8377512314699351 5.225344083655302 1.6944512960277294 0 0 0
48 0 2 0 1.8205931772817654 5.349552950556404 3.2231440976088375 0 0 0
49 0 1 0 6.898156924256494 3.2200295144316566 6.282942118789388 0 0 0
50 0 2 0 6.294543184927001 3.071331493787377 7.0430839564708325 0 0 0
51 0 2 0 6.354255327255817 3.718236821745048 5.674746211876207 0 0 0
52 0 1 0 3.719976911969839 2.824555270622116 3.39409248627555 0 0 0
53 0 2 0 4.465109026147074 2.6429926849728047 2.839583144962955 0 0 0
54 0 2 0 3.191845261537779 3.4532928822528683 2.854619877041316 0 0 0
55 0 1 0 -0.8353857236710562 4.077442874876051 3.2029916186291136 0 0 0
56 0 2 0 16.520231310504677 3.6916965173386793 2.6847843192712744 -1 0 0
57 0 2 0 -0.09354657592748294 4.355233204930958 2.7004528048513206 0 0 0
58 0 1 0 1.9584514443400485 4.085699717574101 6.519361680026629 0 0 0
59 0 2 0 1.7052393428185346 3.4861489750462678 5.768241888297935 0 0 0
60 0 2 0 2.5921779318385147 3.7097843324761506 7.12890341109905 0 0 0
61 0 1 0 8.36095183470197 7.257022673094937 1.5863127440075155 0 0 0
62 0 2 0 7.827141315371154 7.748133974402993 0.9296354458234831 0 0 0
63 0 2 0 7.692028035727044 7.00832157380556 2.247119715816899 0 0 0
64 0 1 0 2.2340239829451813 7.01689975736953 8.042501361972109 0 0 0
65 0 2 0 2.50724616719709 7.737176484629681 8.728206575332726 0 0 0
66 0 2 0 3.0952127359213395 6.874573551072772 7.5973090384308986 0 0 0
67 0 1 0 -2.3403330628671197 0.6505285585806747 7.971566442556253 0 0 0
68 0 2 0 14.910996113893953 0.27276235111132424 7.72689246961315 -1 0 0
69 0 2 0 -2.501155884326656 1.4285360029878873 8.575933915972701 0 0 0
70 0 1 0 3.963145358559992 0.22633723236866543 1.4968081874616754 0 0 0
71 0 2 0 3.207548364726212 0.49818591418273195 2.0736971643467745 0 0 0
72 0 2 0 4.645328077691622 -0.01536537339605382 2.1398298794137998 0 0 0
73 0 1 0 5.449107510374101 4.736598856756591 4.808677027002363 0 0 0
74 0 2 0 4.842199895617741 4.1087084712479935 4.409262415867758 0 0 0
75 0 2 0 5.713811393232988 5.372875131113366 4.132925673569249 0 0 0
76 0 1 0 0.7973520836005299 2.46786372858586 4.630727756899181 0 0 0
77 0 2 0 0.4566035216929476 1.8332692676003788 5.257139953119482 0 0 0
78 0 2 0 0.0878728756682512 2.9822066705207577 4.208291405486901 0 0 0
79 0 1 0 -0.007329407880348526 1.2174697223953466 19.3666574471856 0 0 -1
80 0 2 0 -0.5661564415611355 0.5442309226596532 18.91969043947668 0 0 -1
81 0 2 0 7.576580380914346 0.5028180869010647 0.3178586038448536 0 0 0
82 0 1 0 2.29129422745075 6.385800297993543 0.2066878500385944 0 0 0
83 0 2 0 -5.226455755475216 7.101360637134596 19.124113722511733 0 0 -1
84 0 2 0 -4.188359217028142 5.8585294134714765 18.862019431346926 0 0 -1
85 0 1 0 15.521766972948251 1.2480757150652493 4.683414209497483 0 0 0
86 0 2 0 15.424959881785028 1.343512090260867 3.7689099880600114 0 0 0
87 0 2 0 14.655116823169333 0.9889847847263605 5.034286045005034 0 0 0
88 0 1 0 12.865877886317353 1.0750760314177543 5.355475747436764 0 0 0
89 0 2 0 12.292065972922385 0.23876424153779324 5.274986479797206 0 0 0
90 0 2 0 12.786054174758412 1.3752724846825237 6.290272644671597 0 0 0
91 0 1 0 8.479465950480467 6.5664637565850095 4.950308263886225 0 0 0
92 0 2 0 7.7922113375960045 7.195658614641287 5.152576473322325 0 0 0
93 0 2 0 8.101164834958741 5.9429272169702445 4.360255762686412 0 0 0
94 0 1 0 11.23017985698755 6.572130258905623 4.88725820242817 0 0 0
95 0 2 0 10.249165272079466 6.679754761446601 4.954163836623225 0 0 0
96 0 2 0 11.62207247795667 7.398794189349089 5.214285310445348 0 0 0
97 0 1 0 13.885017006700682 4.855114565340291 10.061351580549522 0 0 0
98 0 2 0 13.863763979424021 5.24375406206579 9.16014804784266 0 0 0
99 0 2 0 14.027088516041488 5.603932682410946 10.644981209923479 0 0 0
100 0 1 0 14.276746302101213 5.219471820633405 0.2055105850266072 0 0 0
101 0 2 0 8.290005930596838 5.157501105627774 19.268116640689634 0 0 -1
102 0 2 0 7.244687794509277 6.105191100036258 18.926279108553018 0 0 -1
103 0 1 0 10.121837077572081 2.761994862069436 0.16392201387322164 0 0 0
104 0 2 0 9.572906641141838 3.5697998753931444 0.1468307609771952 0 0 0
105 0 2 0 11.024889047779634 3.017849243630854 0.4336892074734152 0 0 0
106 0 1 0 9.422595698375353 2.780295953369515 9.723304343351996 0 0 0
107 0 2 0 9.264830007680105 2.5499883747446357 8.771489048736205 0 0 0
108 0 2 0 9.643142620898733 2.0038260554336644 10.226672102055012 0 0 0
109 0 1 0 13.592198693234304 5.930439292928148 7.480509339000998 0 0 0
110 0 2 0 13.803270838525505 5.773140841841073 6.561868900135067 0 0 0
111 0 2 0 12.666451241213665 6.281851158843347 7.508858395725836 0 0 0
112 0 1 0 14.89359342238605 6.695699881211599 2.549566003638884 0 0 0
113 0 2 0 14.739870922059273 6.134219979077202 3.3425551471521566 0 0 0
114 0 2 0 14.626574357303538 6.079752511598703 1.841021530393384 0 0 0
115 0 1 0 10.314847288492938 1.0847064615406492 2.4167594865820785 0 0 0
116 0 2 0 11.246252746584286 1.005256002132968 2.4668668657862094 0 0 0
117 0 2 0 10.10802469252216 1.833690245084579 1.8242733194832716 0 0 0
118 0 1 0 9.13653425478693 1.2752232088028435 7.464027927014292 0 0 0
119 0 2 0 9.422941619398395 1.5214501846071868 6.575986882679974 0 0 0
120 0 2 0 9.75670542792356 0.597168621907779 7.721731163162867 0 0 0
121 0 1 0 15.295103960845868 2.7850238641848017 2.0502564387699347 0 0 0
122 0 2 0 15.334331002524362 2.3193536251021456 1.1804584001591187 0 0 0
123 0 2 0 14.36260737399734 2.9657209812125815 2.2657654465979733 0 0 0
124 0 1 0 12.801272063699594 2.7941031152790363 7.628126212498395 0 0 0
125 0 2 0 12.16246433353842 3.401789808901907 7.252606188985777 0 0 0
126 0 2 0 13.641486938822268 3.034927231994469 7.218048717698668 0 0 0
127 0 1 0 8.693811161305717 5.343943819855877 7.367561888975988 0 0 0
128 0 2 0 8.55143353799334 5.925192024337715 6.62275354289211 0 0 0
129 0 2 0 8.03837431431195 4.720179565401433 7.196918178150313 0 0 0
130 0 1 0 10.933717922359467 5.038642713550735 2.4612262282951756 0 0 0
131 0 2 0 9.95630222792203 4.869181524668888 2.752128517302252 0 0 0
132 0 2 0 11.18160947103462 5.654789578000883 3.143700705242363 0 0 0
134 0 2 0 15.504617008675305 2.7617398169449823 5.8817426795629455 0 0 0
135 0 2 0 -2.112068288273268 3.849405135371427 6.821335077044365 1 0 0
136 0 1 0 12.817778936508592 3.185776283947521 3.3876531414019646 0 0 0
137 0 2 0 11.91269633048798 3.468401775200494 3.1287232009161503 0 0 0
138 0 2 0 12.713488584498853 2.702462842455018 4.196002439824806 0 0 0
139 0 1 0 8.445804368464682 4.459512905405236 3.4317284372792436 0 0 0
140 0 2 0 7.9602381004254585 4.071872466010596 2.6520147096803512 0 0 0
141 0 2 0 8.817036950556918 3.747572034078235 3.9268455105749656 0 0 0
142 0 1 0 10.864870590027873 4.1864164006507645 6.344451639312743 0 0 0
143 0 2 0 11.25906440096134 4.992615904553798 5.994659028198819 0 0 0
144 0 2 0 10.061399659492581 4.556339633428326 6.7835910703897335 0 0 0
146 0 2 0 16.616236359711323 6.904310048805258 2.2166956944679646 0 0 0
147 0 2 0 17.06766688123971 7.9179740184488 1.1114663573399832 0 0 0
148 0 1 0 11.063256959026305 7.020132504715621 8.340059015986999 0 0 0
149 0 2 0 10.630080973875927 6.244381394182108 8.669858009582622 0 0 0
150 0 2 0 10.359943422620358 7.472951465975277 7.826899387708806 0 0 0
151 0 1 0 6.680291320692315 0.4038415533041001 8.51582215059163 0 0 0
152 0 2 0 7.440318510805703 0.6918294655880829 7.933868159516797 0 0 0
153 0 2 0 6.408384390199816 1.2746228592889899 8.890306210519642 0 0 0
154 0 1 0 13.23738715430607 0.2528750438460306 2.1740844880877157 0 0 0
155 0 2 0 13.486371677823875 1.2054455260956436 2.125053246001187 0 0 0
156 0 2 0 12.710844797532264 0.0902204848240021 1.3768952250676987 0 0 0
157 0 1 0 14.09672423404548 5.395629601328316 4.700412593335617 0 0 0
158 0 2 0 13.529545929401653 4.786087879984794 4.216640978700881 0 0 0
159 0 2 0 14.819115307418333 4.869781808958098 5.130224060901332 0 0 0
160 0 1 0 9.67237289316031 2.463105736283927 4.689816146705264 0 0 0
161 0 2 0 10.392958379137896 2.927487781460353 5.14305917331175 0 0 0
162 0 2 0 9.946389672673504 1.891187750071529 3.943799494781462 0 0 0
163 0 1 0 9.038951079899249 1.2083823732371364 19.206866376188415 0 0 -1
164 0 2 0 9.466233982430904 1.7050388100046623 18.490964918729162 0 0 -1
165 0 2 0 8.532021643425274 0.46472526266365805 18.796263252419955 0 0 -1
166 0 1 0 11.467873103774949 6.532603921114192 0.22160567305455273 0 0 0
167 0 2 0 11.086024498326049 5.993938541611581 0.9032913678334386 0 0 0
168 0 2 0 3.7900298136518593 7.126742747564044 19.102672944513387 0 0 -1
169 0 1 0 6.514371255606419 8.475341839705788 4.932209028088104 0 0 0
170 0 2 0 5.500577397000077 8.593762340539463 4.949460532392248 0 0 0
171 0 2 0 6.86457580032007 9.325798798056331 5.326375827084569 0 0 0
172 0 1 0 3.8564535620256377 8.59531045066622 5.097215354262761 0 0 0
173 0 2 0 3.273904667548649 7.840849226505874 5.166131012284297 0 0 0
174 0 2 0 3.5477576240067075 9.202738715448765 4.4367889026160405 0 0 0
175 0 1 0 -0.644730677706671 13.92102866321867 5.003740521307591 0 0 0
176 0 2 0 -1.3387411440458437 14.653342811882235 5.119434433249854 0 0 0
177 0 2 0 0.23822404475267445 14.32687854489137 4.950262430808357 0 0 0
178 0 1 0 2.0868736918520012 14.433375471165158 4.96000538758791 0 0 0
179 0 2 0 2.3102377763228112 13.67373821175713 5.52825500218362 0 0 0
180 0 2 0 2.149507255728657 14.018367832922994 4.086449979324017 0 0 0
181 0 1 0 4.935381616735093 12.406761660477466 9.865880892719872 0 0 0
182 0 2 0 5.1476440470438956 13.101328293972461 10.45773686481209 0 0 0
183 0 2 0 5.542514631180813 11.697972959569569 10.062790795156653 0 0 0
184 0 1 0 5.509147631049049 12.185495192203947 0.2756648605749044 0 0 0
185 0 2 0 -1.6823287648206486 12.878827846616304 18.864114506366494 0 0 -1
186 0 2 0 6.427171286944356 11.957054682876327 0.09542893261822913 0 0 0
187 0 1 0 0.9428603731457847 10.238471029203463 0.30397137238684935 0 0 0
188 0 2 0 0.8863652786570343 9.820924415762601 1.1331074208419554 0 0 0
189 0 2 0 1.8842827128809487 10.443309736490628 0.1969770807619763 0 0 0
190 0 1 0 0.4213190291498843 10.006123204622707 9.762237542859593 0 0 0
191 0 2 0 0.2487828508683969 9.526700350436412 8.924903159710807 0 0 0
192 0 2 0 1.1650348439326192 10.583223570627103 9.62530951249118 0 0 0
193 0 1 0 4.638997166484266 13.719028812756155 7.265787417402762 0 0 0
194 0 2 0 4.716021497381713 13.202122678772204 6.429810620577954 0 0 0
195 0 2 0 4.477663318561947 13.091346660676834 7.990123686718404 0 0 0
196 0 1 0 5.835286434991807 14.009326258647292 2.3614880898252735 0 0 0
197 0 2 0 5.645393493194426 13.265028871932351 1.7187350079932204 0 0 0
198 0 2 0 5.539636613097394 13.5919982191366 3.209377296857284 0 0 0
199 0 1 0 1.2625488252851693 8.677923591374785 2.6902335751195583 0 0 0
200 0 2 0 0.6372522310525374 7.958095330859704 2.4364467764987623 0 0 0
201 0 2 0 2.1396412797270306 8.371264206946904 2.448243870572744 0 0 0
202 0 1 0 0.14001642180251261 8.658667215046282 7.173073757309892 0 0 0
203 0 2 0 -0.7070933255778484 8.267610541635083 7.51970734898492 0 0 0
204 0 2 0 0.8126257115905107 8.042535431246808 7.55431009075205 0 0 0
205 0 1 0 5.876610916120748 10.097922272088041 2.4932956341878594 0 0 0
206 0 2 0 6.142792711075662 9.394022045364379 3.1043459771874073 0 0 0
207 0 2 0 6.44944626203544 10.804180453747884 2.822689237758313 0 0 0
208 0 1 0 4.09118078884387 10.480236266496398 7.342976890018532 0 0 0
209 0 2 0 3.378240374107219 11.058674684878362 6.983010624235653 0 0 0
210 0 2 0 4.128739309577245 9.707293388745567 6.7748073672710705 0 0 0
211 0 1 0 -0.2148891768911132 12.315196817479286 7.181807054811675 0 0 0
212 0 2 0 -0.4549566712429467 12.890817544315473 7.9271981021106654 0 0 0
213 0 2 0 -0.5152751396503652 12.770412562333714 6.3536406583166345 0 0 0
214 0 1 0 2.114116748463354 12.740798786955677 2.5291626233023186 0 0 0
215 0 2 0 1.9880830666644584 13.108820693218735 1.6382405865285092 0 0 0
216 0 2 0 1.2013412327764534 12.456991207367777 2.8076047639445214 0 0 0
217 0 1 0 6.524415798280444 10.930481187409544 6.034377866350202 0 0 0
218 0 2 0 5.7213646285197 10.64826957186114 6.487503927309287 0 0 0
219 0 2 0 7.186094695693519 11.247590129231753 6.699905806435397 0 0 0
220 0 1 0 3.526296844537061 10.704773985437868 3.533796338813278 0 0 0
221 0 2 0 4.327465136827375 10.545342241993925 2.9798915203143457 0 0 0
222 0 2 0 2.8178384195757893 11.11469223713432 3.032104502839397 0 0 0
223 0 1 0 -0.29147072316168365 11.8811382954096 3.3106824294321817 0 0 0
224 0 2 0 0.01917123475511473 11.133787557208997 3.916042809454461 0 0 0
225 0 2 0 -0.6218788811650405 12.573480726189521 3.8807383122356356 0 0 0
226 0 1 0 2.2654730077942014 11.944393847426827 6.013163968484652 0 0 0
227 0 2 0 1.6092122083934104 12.005160784138667 6.711161552989709 0 0 0
228 0 2 0 1.9354211744492977 11.217923396806142 5.493045008047326 0 0 0
229 0 1 0 8.309780390773536 14.489302065104 1.6297352779637484 0 0 0
230 0 2 0 7.483234860846816 14.42821416303031 2.119554014865795 0 0 0
231 0 2 0 8.973737111254538 14.985219217956402 2.195780419252035 0 0 0
232 0 1 0 2.020862763278871 14.482812033335051 8.134993152612514 0 0 0
233 0 2 0 2.770842109474856 14.588206618388297 7.587943321860923 0 0 0
234 0 2 0 1.2595846654844234 14.881257634853696 7.754177664061375 0 0 0
235 0 1 0 -2.538384442687918 7.841669706218643 8.323246812173513 0 0 0
236 0 2 0 14.827874112387772 7.269168062244641 8.046601439147675 -1 0 0
237 0 2 0 15.158580344824358 8.672011504431966 8.653392942719154 -1 0 0
238 0 1 0 3.816489774580267 8.016871153657855 1.8724349122443402 0 0 0
239 0 2 0 3.8771218796937115 8.781220160721984 1.2701861708644857 0 0 0
240 0 2 0 3.2666461984619546 7.425707336586466 1.2954032673138254 0 0 0
241 0 1 0 5.089622953697 12.75032698836581 4.719744549785227 0 0 0
242 0 2 0 5.8297959228662695 12.243584736081852 5.143303465626966 0 0 0
243 0 2 0 4.436744362179096 12.093655782801411 4.362848956902768 0 0 0
244 0 1 0 0.668875582054375 9.839227207293947 4.874865960992065 0 0 0
245 0 2 0 0.9722396843903998 9.24235868887771 4.188729164520007 0 0 0
246 0 2 0 0.6544859881046432 9.35819408838354 5.711661737105438 0 0 0
247 0 1 0 -0.026923858023799596 9.09970814027626 19.307979650564768 0 0 -1
248 0 2 0 6.417539518643664 9.434817283328591 0.7553924532977591 0 0 0
249 0 2 0 -0.7766106871944647 8.63777447447263 18.86804334943278 0 0 -1
250 0 1 0 -4.525153569113513 13.951936878985615 19.28003623355336 0 0 -1
251 0 2 0 -5.14329247407324 14.472965477143136 18.78499294032168 0 0 -1
252 0 2 0 2.949767837988965 14.439544039934175 0.3696898183945114 0 0 0
253 0 1 0 15.713201485127192 8.56944263619539 5.002728472097855 0 0 0
254 0 2 0 16.287757992630855 7.777387797629706 5.045872092683404 0 0 0
255 0 2 0 15.574645331205229 8.607764519024636 4.028362778614191 0 0 0
256 0 1 0 12.99438881434804 8.566422989741215 5.735365970207415 0 0 0
257 0 2 0 13.917422705916296 8.447087005294499 5.358279857420977 0 0 0
258 0 2 0 13.14898736946683 9.238499950260731 6.408497344618163 0 0 0
259 0 1 0 8.200663481551421 13.794169084976025 4.865167443175798 0 0 0
260 0 2 0 9.119595611211103 14.130188588105376 4.954463047603207 0 0 0
261 0 2 0 8.285920737734607 13.07513230981913 4.163060332929074 0 0 0
262 0 1 0 11.184491031656286 14.037522418062476 4.755315080298387 0 0 0
263 0 2 0 11.142191420064577 13.783690206502747 3.8357046793351293 0 0 0
264 0 2 0 11.759623329756264 14.862344358799382 4.851546594155525 0 0 0
265 0 1 0 14.201169281786429 12.42065923767118 9.739054737472113 0 0 0
266 0 2 0 -3.2156964686235803 11.749308037978562 9.730019758176342 1 0 0
267 0 2 0 14.106372807330741 12.739518016900671 8.84087913953585 0 0 0
268 0 1 0 7.6294967631982695 12.591969224610908 19.28657687498858 0 0 -1
269 0 2 0 14.66791350929851 12.681172017731893 0.8489704577465188 0 0 0
270 0 2 0 7.077715210142553 11.78748570172736 19.282929254819745 0 0 -1
271 0 1 0 9.832016722531993 10.467804122561201 0.2739729754544114 0 0 0
272 0 2 0 10.832381719524356 10.621308412155654 0.2198096969890888 0 0 0
273 0 2 0 9.730807697452052 10.220136341393891 1.1961267480731719 0 0 0
274 0 1 0 9.340929457959835 9.895579296271775 9.598672329689748 0 0 0
275 0 2 0 9.879912611353115 10.721906789383857 9.549081651428219 0 0 0
276 0 2 0 9.366722475958898 9.56146422508787 8.676217694904196 0 0 0
277 0 1 0 14.155040532648385 13.808314354712197 7.270442050464124 0 0 0
278 0 2 0 14.55493053254849 14.620536887510891 7.486711993866263 0 0 0
279 0 2 0 13.235751557228358 14.085474922188453 7.0985830934201255 0 0 0
280 0 1 0 15.144442382053654 13.734601923086997 2.320713458344112 0 0 0
281 0 2 0 14.996176801101292 13.372832276425813 3.182971334009508 0 0 0
282 0 2 0 16.011098880998585 14.13750765198712 2.1555580733028186 0 0 0
283 0 1 0 10.32230300104455 9.120814608018518 2.6874131603002365 0 0 0
284 0 2 0 9.713241994865895 8.44774511481577 2.418874966199385 0 0 0
285 0 2 0 11.26979009483888 8.909856957593123 2.3934878587093316 0 0 0
286 0 1 0 9.049974108953688 8.477237047947767 7.226959854610027 0 0 0
287 0 2 0 8.085418755188222 8.436515331928959 7.427792550260847 0 0 0
288 0 2 0 9.151095556997355 8.908559009664796 6.389104406740744 0 0 0
289 0 1 0 15.379200810370692 10.059985617707255 2.5673357483243144 0 0 0
290 0 2 0 15.975954639202701 10.745856823172767 2.877404654080407 0 0 0
291 0 2 0 14.456294548789668 10.308786848258164 2.747243913471421 0 0 0
292 0 1 0 13.154384739407215 10.559869224272685 7.657131377425697 0 0 0
293 0 2 0 14.054663677473332 10.80788407671602 7.512116010893878 0 0 0
294 0 2 0 13.213508432121843 10.208729321201972 8.549121028217499 0 0 0
295 0 1 0 8.504904457587974 12.21869141507706 7.324323802833696 0 0 0
296 0 2 0 8.165013250483193 12.817993378158677 6.606389939376804 0 0 0
297 0 2 0 9.458475926314591 12.031064760994495 7.168364777618121 0 0 0
298 0 1 0 10.690192835179912 12.594953617439026 2.681022717458715 0 0 0
299 0 2 0 10.73397209092039 12.825382367459197 1.73983487995618 0 0 0
300 0 2 0 11.398905425597679 11.940972742703398 2.7021346110734186 0 0 0
301 0 1 0 15.76564503919185 10.652018622367068 6.700609400367781 0 0 0
302 0 2 0 16.087679540680554 9.876635728528818 6.182384209181479 0 0 0
303 0 2 0 -1.567956831247253 11.170570086783272 6.906660527173208 1 0 0
304 0 1 0 12.85167342297313 10.624537881106898 3.8385463042042334 0 0 0
305 0 2 0 12.833529416857893 9.862135553876435 4.425369865877617 0 0 0
306 0 2 0 13.28128473623057 11.308992621099309 4.371088671168083 0 0 0
307 0 1 0 8.08811938734741 11.549368176961066 3.0760832411556427 0 0 0
308 0 2 0 8.99317740071958 11.895895806789259 2.8897006804771768 0 0 0
309 0 2 0 8.289389296613939 10.99970480680695 3.8657401482385234 0 0 0
310 0 1 0 11.082514411353188 11.714757166726354 6.384873468727768 0 0 0
311 0 2 0 11.871937554980518 11.221157946295863 6.752244894126506 0 0 0
312 0 2 0 11.434780016482016 12.537588187228959 5.938676663634398 0 0 0
313 0 1 0 17.708440346201193 14.666449751128287 1.413804003158192 0 0 0
314 0 2 0 0.33536276999926806 14.842729649969746 1.9884063888661707 1 0 0
315 0 2 0 17.870230057232323 13.858698490330637 0.8709378012083203 0 0 0
316 0 1 0 11.052500134870183 14.44915086181222 7.7286156896143785 0 0 0
317 0 2 0 10.95073085861846 13.690463319857566 8.338091297598991 0 0 0
318 0 2 0 11.483909960158892 15.085470482628729 8.269068942394961 0 0 0
319 0 1 0 6.5469004322686235 8.055246517272012 8.185847776933398 0 0 0
320 0 2 0 6.793161703562077 7.450934159066569 8.883029999232825 0 0 0
321 0 2 0 5.938915290759141 7.665818226240354 7.575682806235135 0 0 0
322 0 1 0 12.566700916247637 8.377794650783512 1.706267902772001 0 0 0
323 0 2 0 12.121505673188214 7.707157935839646 1.125662635882315 0 0 0
324 0 2 0 13.25944509163419 7.905026637983832 2.1735163337864987 0 0 0
325 0 1 0 14.612923667235103 12.438055203810528 4.846692884171664 0 0 0
326 0 2 0 15.033913380459843 11.766058351625725 5.402163275403931 0 0 0
327 0 2 0 14.415596503022629 13.158684688385287 5.490383873482629 0 0 0
328 0 1 0 9.492220478181101 10.083276452722544 5.069546366225113 0 0 0
329 0 2 0 9.763126689646938 9.588765473635128 4.234980611896806 0 0 0
330 0 2 0 10.268188458628387 10.58635660352334 5.353950267978918 0 0 0
331 0 1 0 8.887138402171953 9.31839396050804 19.35385965872717 0 0 -1
332 0 2 0 15.564027419566909 9.484419728018343 0.905658696132906 0 0 0
333 0 2 0 8.999537465784911 10.10099400231257 18.783228386440943 0 0 -1
334 0 1 0 11.521987187169312 13.634982297820432 0.33710728733761075 0 0 0
335 0 2 0 5.085514185403838 13.131264528983163 19.05891683724678 0 0 -1
336 0 2 0 4.038652386252701 14.270444647724485 19.050313594352982 0 0 -1
337 0 1 0 6.749516194103136 16.192411906416215 4.927113142741204 0 0 0
338 0 2 0 7.223319929780746 15.372172385524275 4.980464790972235 0 0 0
339 0 2 0 6.755202457213959 16.35159945401741 3.991189957504771 0 0 0
340 0 1 0 3.9398344011011712 16.34564507576797 5.341173773254859 0 0 0
341 0 2 0 3.309424241439127 15.695840128159324 5.042955644906457 0 0 0
342 0 2 0 4.830411919383096 16.043445767000094 5.128794228986016 0 0 0
343 0 1 0 -1.0022286349440028 21.710618956817914 4.8101615870177445 0 0 0
344 0 2 0 -0.9199621863897858 21.341204881000507 5.655511080320248 0 0 0
345 0 2 0 16.537353216359737 22.540235223565453 4.803349581858699 -1 0 0
346 0 1 0 1.9347632845223142 21.849001193017894 4.690357064565186 0 0 0
347 0 2 0 2.1352274497413517 21.045930454038068 5.196032257936525 0 0 0
348 0 2 0 0.9768566638297869 22.014053945374258 4.6426447181946084 0 0 0
349 0 1 0 5.173654864169236 19.972555655882328 9.828337564696925 0 0 0
350 0 2 0 5.44511513112091 20.687369399483877 10.398886769993643 0 0 0
351 0 2 0 5.053352446214205 20.510548988332076 8.98087477975549 0 0 0
352 0 1 0 5.5847665308345205 19.994299629961148 0.1900502407515186 0 0 0
353 0 2 0 5.099032829087177 19.191274989176044 0.0958886884671329 0 0 0
354 0 2 0 5.461127562500749 20.32289668142093 1.0797696557457468 0 0 0
355 0 1 0 1.1283923525192425 17.675938911317978 0.27569684804993655 0 0 0
356 0 2 0 1.150444132101717 17.422001179853496 1.2540473855413259 0 0 0
357 0 2 0 -6.042829534682092 17.008841435309098 19.12705783929526 0 0 -1
358 0 1 0 0.6014712877051807 17.953534531782545 9.815087473976677 0 0 0
359 0 2 0 0.7667307226001232 17.250136224922908 10.452148791768318 0 0 0
360 0 2 0 1.3420561366255188 18.566568745093768 9.791128123226462 0 0 0
361 0 1 0 4.446987915604746 21.57772447921964 7.716000890623868 0 0 0
362 0 2 0 5.159867607355636 22.215151600690895 7.858129360531825 0 0 0
363 0 2 0 3.5679993529003786 22.009820333670653 7.780637569554656 0 0 0
364 0 1 0 5.8345175293691405 21.264543638324287 2.795045708035385 0 0 0
365 0 2 0 6.776090241935822 21.36739634959774 2.724713412337406 0 0 0
366 0 2 0 5.6775147300137006 20.72678252584608 3.5774237416105574 0 0 0
367 0 1 0 1.397868840376145 16.39059231202468 2.7256035015445987 0 0 0
368 0 2 0 2.3341817757206056 16.22020716494318 2.594676349033546 0 0 0
369 0 2 0 1.2856839266213567 16.688814528021084 3.6354265371663663 0 0 0
370 0 1 0 0.22847963188098275 16.291064696099735 7.472584747703895 0 0 0
371 0 2 0 0.39897080102626603 16.921221615581093 8.175544139787947 0 0 0
372 0 2 0 0.362098498859055 16.66317473885247 6.636682318903665 0 0 0
373 0 1 0 6.432137383016503 17.764649821770316 2.501245292337557 0 0 0
374 0 2 0 6.482459528252051 17.184740424843465 1.6819178775125092 0 0 0
375 0 2 0 5.520825356545987 18.06953367765084 2.4790475087289217 0 0 0
376 0 1 0 3.9085936371723244 17.816275273022722 7.532252111579958 0 0 0
377 0 2 0 3.924505251382272 17.207079710658192 6.751306879027971 0 0 0
378 0 2 0 4.6635585795739125 18.38257571303038 7.5676264527293355 0 0 0
379 0 1 0 -0.4022413586277138 20.069290511682176 7.085216166527053 0 0 0
380 0 2 0 -0.9471390881586548 19.273466796181783 6.870984119068905 0 0 0
381 0 2 0 -0.6339002272659027 20.31309423985446 8.01560278322657 0 0 0
382 0 1 0 1.7258376173451746 19.889687576157375 2.3717919628052186 0 0 0
383 0 2 0 2.523823935627264 19.368852828827915 2.6194965002038972 0 0 0
384 0 2 0 1.7089195585212529 20.63299039926141 2.996780544406936 0 0 0
385 0 1 0 6.366697252652907 18.477875551872167 6.4822319971819296 0 0 0
386 0 2 0 7.188037018022556 18.99139648712759 6.673383344887214 0 0 0
387 0 2 0 6.749040202730029 17.71194245212448 5.970529203545606 0 0 0
388 0 1 0 3.871680989077606 18.497129664771904 3.315238888100876 0 0 0
389 0 2 0 3.699632253608786 17.62210752872651 3.7596405139609765 0 0 0
390 0 2 0 4.087034001489542 18.998220417919416 4.146565690415279 0 0 0
391 0 1 0 -0.9203816905692201 19.08215498597054 3.4721585754800794 0 0 0
392 0 2 0 -0.05710228911785431 19.06968109246579 3.0201167405743843 0 0 0
393 0 2 0 -1.0888207183606433 20.012179377293336 3.6828759767422046 0 0 0
394 0 1 0 2.0661335326911185 19.44933376166582 6.196358749800128 0 0 0
395 0 2 0 1.2817037395294242 19.83541127795492 6.635029540160424 0 0 0
396 0 2 0 2.6110920687890182 19.069922034596168 6.89158050024036 0 0 0
397 0 1 0 8.28487952682505 22.012983541575867 1.7113919170045282 0 0 0
398 0 2 0 8.516931757476776 21.187438665940338 1.2791318621502459 0 0 0
399 0 2 0 9.09634747402509 22.400461994181136 2.0857065680807136 0 0 0
400 0 1 0 1.9786783638093581 22.12503636719885 8.438419545349896 0 0 0
401 0 2 0 2.313309522089638 0.20087628890243758 8.913299289569805 0 1 0
402 0 2 0 1.4516317887920525 22.5298037509386 7.762594861954369 0 0 0
403 0 1 0 -2.360622257006031 15.722722538434992 8.148135747871283 0 0 0
404 0 2 0 -1.5315215868510597 16.018983344580047 7.732954947537931 0 0 0
405 0 2 0 -2.6336292021640215 16.565600279789358 8.672773826241745 0 0 0
406 0 1 0 3.6549028149264293 15.594859489430032 1.4929059280393198 0 0 0
407 0 2 0 4.5309636487263525 15.116127737921135 1.743273158681084 0 0 0
408 0 2 0 3.8987683117910956 16.314634505744078 0.8791323129729921 0 0 0
409 0 1 0 4.913442295520224 20.316275162081936 5.224504126398465 0 0 0
410 0 2 0 5.498252231237819 19.736501141283107 5.702365716325742 0 0 0
411 0 2 0 4.501625549563479 20.872758920006266 5.877923201379539 0 0 0
412 0 1 0 0.5327725540929884 17.41725093525295 5.193584732293547 0 0 0
413 0 2 0 1.142773916168486 18.159646073035297 5.505721345697765 0 0 0
414 0 2 0 -0.1898399415020955 17.897329811806806 4.797049131194343 0 0 0
415 0 1 0 6.687423751303666 16.036330181800253 0.22808640497557123 0 0 0
416 0 2 0 7.409511057589604 15.668006257206684 0.6922635844945954 0 0 0
417 0 2 0 0.2403260147591304 16.566511426853722 18.80077273616552 0 0 -1
418 0 1 0 -4.499267360011598 21.364916179301698 19.401235682318397 0 0 -1