LAMMPS (29 Sep 2021 - Update 2)
  using 1 OpenMP thread(s) per MPI task
echo both

include		in.partitions
variable        pid world 0
include		in.temp
variable        temperature equal 245
variable        tempDamp equal 0.100 # this is 0.1 ps
include		in.pressure
variable        pressure equal 5066.25
variable        pressureDamp equal 1.0 #this is 1ps
include		in.seed
variable        seed world 745823

units           metal
atom_style	full
include		in.box
read_data       iceV.data
Reading data file ...
  triclinic box = (0.0000000 0.0000000 0.0000000) to (18.399555 22.570389 19.505716) with tilt (0.0000000 -6.7926110 0.0000000)
  1 by 1 by 1 MPI processor grid
  reading atoms ...
  1008 atoms
Finding 1-2 1-3 1-4 neighbors ...
  special bond factors lj:    0        0        0       
  special bond factors coul:  0        0        0       
     0 = max # of 1-2 neighbors
     0 = max # of 1-3 neighbors
     0 = max # of 1-4 neighbors
     1 = max # of special neighbors
  special bonds CPU = 0.000 seconds
  read_data CPU = 0.310 seconds
include 	in.setup
variable	out_freq equal 500
variable	out_freq2 equal 500

timestep        0.0005

neigh_modify    delay 7 every 1

include         in.deepmd
# This is deepMD model

# create groups ###
#group ox type 2
#group hy type 1

mass 2 15.999
mass 1 1.008

pair_style      deepmd ../graph.pb
pair_coeff      * *

bond_style      none
angle_style     none
dihedral_style  none
improper_style  none
neigh_modify exclude none


neighbor        2.0 bin
neigh_modify    every 10 delay 0 check no

thermo          ${out_freq}
thermo          500
thermo_style 	custom step temp pe etotal epair emol press lx ly lz xy xz yz vol pxx pyy pzz pxy pxz pyz

restart 	${out_freq} restart.lmp.${pid} restart2.lmp.${pid}
restart 	500 restart.lmp.${pid} restart2.lmp.${pid}
restart 	500 restart.lmp.0 restart2.lmp.${pid}
restart 	500 restart.lmp.0 restart2.lmp.0


include         in.dump
dump            myDump all atom ${out_freq2} dump.water.${pid}
dump            myDump all atom 500 dump.water.${pid}
dump            myDump all atom 500 dump.water.0
dump            myDump2 all dcd ${out_freq2} dump.dcd
dump            myDump2 all dcd 500 dump.dcd
dump_modify     myDump append yes
dump_modify     myDump2 append yes


timer           timeout 03:55:00 every 1000
New timer settings: style=normal  mode=nosync  timeout=03:55:00

fix             2 all nph tri ${pressure} ${pressure} ${pressureDamp}
fix             2 all nph tri 5066.25 ${pressure} ${pressureDamp}
fix             2 all nph tri 5066.25 5066.25 ${pressureDamp}
fix             2 all nph tri 5066.25 5066.25 1
fix             3 all temp/csvr ${temperature} ${temperature} ${tempDamp} ${seed}
fix             3 all temp/csvr 245 ${temperature} ${tempDamp} ${seed}
fix             3 all temp/csvr 245 245 ${tempDamp} ${seed}
fix             3 all temp/csvr 245 245 0.1 ${seed}
fix             3 all temp/csvr 245 245 0.1 745823
velocity 	all create ${temperature} ${seed} dist gaussian
velocity 	all create 245 ${seed} dist gaussian
velocity 	all create 245 745823 dist gaussian

run             400000

CITE-CITE-CITE-CITE-CITE-CITE-CITE-CITE-CITE-CITE-CITE-CITE-CITE

Your simulation uses code contributions which should be cited:

- USER-DEEPMD package:

@article{Wang_ComputPhysCommun_2018_v228_p178,
  author = {Wang, Han and Zhang, Linfeng and Han, Jiequn and E, Weinan},
  doi = {10.1016/j.cpc.2018.03.016},
  url = {https://doi.org/10.1016/j.cpc.2018.03.016},
  year = 2018,
  month = {jul},
  publisher = {Elsevier {BV}},
  volume = 228,
  journal = {Comput. Phys. Commun.},
  title = {{DeePMD-kit: A deep learning package for many-body potential energy representation and molecular dynamics}},
  pages = {178--184}
}

CITE-CITE-CITE-CITE-CITE-CITE-CITE-CITE-CITE-CITE-CITE-CITE-CITE

Neighbor list info ...
  update every 10 steps, delay 0 steps, check no
  max neighbors/atom: 2000, page size: 100000
  master list distance cutoff = 8
  ghost atom cutoff = 8
  binsize = 4, bins = 7 6 5
  1 neighbor lists, perpetual/occasional/extra = 1 0 0
  (1) pair deepmd, perpetual
      attributes: full, newton on
      pair build: full/bin
      stencil: full/bin/3d
      bin: standard
Per MPI rank memory allocation (min/avg/max) = 7.699 | 7.699 | 7.699 Mbytes
Step Temp PotEng TotEng E_pair E_mol Press Lx Ly Lz Xy Xz Yz Volume Pxx Pyy Pzz Pxy Pxz Pyz 
       0          245   -178.42725   -146.53684   -178.42725            0    35817.161    18.399555    22.570389    19.505716            0    -6.792611            0    8100.4335    35362.553    36572.983    35515.947   -447.97578    1248.7085    370.09265 
     500    242.01845   -166.76359   -135.26126   -166.76359            0    11190.504    18.057788    22.272837     19.30011  -0.02907339   -6.7706587 -0.0068201716    7762.4689    10021.162    11768.222    11782.127   -2533.9921    6.6091516   -286.31372 
    1000    245.92589   -166.44356   -134.43262   -166.44356            0    6952.9477     18.08218    22.656235     19.52655  -0.02707434   -6.9048403  0.019298721     7999.522    8291.6482     7325.095    5242.0999    1951.0708   -232.39849   -982.58611 
    1500    241.54675   -166.82028   -135.37936   -166.82028            0    16737.495    18.063437    22.699946    19.381013 -0.017638715   -6.9716125 0.0044146535    7946.9722    19529.979    14408.802    16273.705   -1357.6424    2793.4307    1378.0197 
    2000    243.31823   -165.07199   -133.40048   -165.07199            0   -2377.7016    18.072678    22.667829     19.28876 0.0058070418   -7.0106554 -0.036140484    7901.9949    1197.3849   -1378.4215   -6952.0681    106.07538    -105.4509   -1408.0112 
    2500    252.50626   -165.55433   -132.68686   -165.55433            0    5039.2491    18.178436    22.853564     19.34016  0.012487615   -7.0658237 -0.047502024    8034.7159     4592.981    4462.3162    6062.4503    689.75046   -315.04698    2212.3676 
    3000    250.01368   -164.74768   -132.20466   -164.74768            0     10699.22    18.020861    22.636902    19.202797  0.020044217   -7.0323429  0.036708337     7833.521    8014.8212    12773.198     11309.64    940.01298    2433.9582   -251.49815 
    3500    243.39276   -166.06108   -134.37987   -166.06108            0    668.30138    18.120311    22.773048    19.414861  0.005375914   -7.0721474   0.19733778     8011.634    4937.6428   -756.47981   -2176.2589   -40.856087    1140.9457   -2242.3169 
    4000    236.29861   -165.27586   -134.51806   -165.27586            0     10192.32    18.103515    22.658319    19.385825 -0.060454565   -7.0343304   0.20246584    7951.9727    13287.896    8483.8198     8805.243   -30.998823    2623.4878     -273.575 
    4500    244.11758   -166.44534   -134.66978   -166.44534            0    6417.1197    18.093517    22.463439    19.346607  -0.15706053   -6.9273352  0.052322759    7863.2855    7401.7363    6195.0281    5654.5947   -1192.4146   -647.75721    2894.2258 
    5000    241.05308    -165.3632   -133.98654    -165.3632            0    4411.4231      18.2067    22.562994    19.449452  -0.17947795   -6.8623822  -0.12980115    7989.7894    4879.7542    2748.7248    5605.7903    2335.8749   -2325.2999   -1337.1263 
    5500    245.79452   -167.12898   -135.13514   -167.12898            0    6446.5167    18.074792    22.532254    19.366359 -0.013353931   -6.7757535 -0.075985976    7887.2562    9381.5059    4369.3847    5588.6595   -703.35186   -70.304244    1649.0712 
    6000     249.5957   -166.10711    -133.6185   -166.10711            0    741.94296    18.019766    22.661833    19.422165   0.12867405   -6.7567271   0.13956616    7931.2533   -494.17198    2780.5949   -60.594069   -1012.1482   -1185.7481   -306.02659 
    6500    238.68283   -166.07499   -135.00685   -166.07499            0    2799.2693     17.94033    22.899741    19.340499  0.093190045   -6.8141582   0.27553438    7945.6363    4338.6925    567.41275    3491.7027   -181.65399    1858.6515    4.0161308 
    7000    241.13646    -164.0104   -132.62289    -164.0104            0     3754.908    18.057911    22.958403    19.165164  -0.11353097   -7.0023672   0.16911326    7945.5089    4653.3331    2313.4855    4297.9055   -876.48174   -1019.3092    760.01902 
    7500    246.60355   -164.89993   -132.80079   -164.89993            0    8232.7742     18.13411    22.807191    19.168362  -0.37250865   -7.1796846  -0.10893523    7927.8063    10879.329    3917.1289    9901.8645    3237.0441   -2134.1663      4038.51 
    8000    241.62117    -165.5785   -134.12788    -165.5785            0    5093.0005    18.127343    22.550136    19.455949  -0.32778241   -7.2108752  -0.20608012    7953.0868    5439.1838    4213.9995    5625.8182   -629.11206    10.606036    2974.1321 
    8500    235.36839   -165.77108   -135.13436   -165.77108            0    5297.7079    18.099841    22.258532    19.611954 0.0024454834   -7.1445835 -0.017917033    7901.1834    5557.0103    7453.2513    2882.8619    1318.4167    95.227568    3319.6811 
    9000    245.30669   -164.27968   -132.34935   -164.27968            0    3270.5186    18.231313    22.372936    19.526477   0.26352506    -7.013926   0.13431319    7964.6156    2598.1078    3988.2436    3225.2043   -2719.1874   -1512.6186    2904.4495 
    9500    257.62023   -166.38542   -132.85229   -166.38542            0    4451.4876    18.200982    22.547339    19.307594   0.10872473   -6.8892512   0.14357719    7923.5217    5325.4761    3010.0471    5018.9397    -30.93584   -1792.7134    897.47358 
   10000    243.62518   -163.93434   -132.22287   -163.93434            0    3455.7575    18.116458    22.870426    19.262425  -0.20937767   -6.8056761  0.042550893    7981.0218    3275.3096    4323.6131      2768.35    886.64633    1508.9644   -1813.3808 
   10500    250.29253   -163.59859   -131.01927   -163.59859            0    3170.1292    17.982684    22.906602    19.299834  -0.27808217   -6.7769024  0.039241062    7950.0298    2315.1213    4637.4464    2557.8198   -234.08668    386.78885    2456.6107 
   11000    241.51141   -164.21102    -132.7747   -164.21102            0     5696.994    17.923567    22.817811    19.405454  -0.13706069   -6.7809672   0.13190781    7936.3757    8998.9787    5510.1326    2581.8707    127.99418    804.47928    642.70082 
   11500    241.69155     -165.499   -134.03923     -165.499            0    7060.0053     18.05686    22.585433    19.463886  0.055944834   -6.8805929   0.10936823     7937.801    9950.4924    8496.9398    2732.5838    1899.6739    -93.34524    -682.6997 
   12000     251.1662   -164.87763    -132.1846   -164.87763            0    4661.1641    18.298928    22.241194    19.455989   0.20919535   -7.0992221 -0.019762023    7918.3928    2959.5942    6219.4701    4804.4281    2732.8244    835.19028    940.54814 
   12500    245.65877   -164.31192   -132.33575   -164.31192            0    4564.8286    18.395141    22.342439    19.490095   0.20176408   -7.2046998  -0.13994957    8010.2792    7219.2677    1536.4759    4938.7421   -1044.3349   -775.59121   -2482.9253 
   13000    254.70442   -164.67081   -131.51722   -164.67081            0    5262.2578    18.102909    22.562447     19.40889   0.02508391   -7.0656931  -0.12611148    7927.4819    596.97294    7471.3553    7718.4453   -57.182184    -805.5993   -462.75508 
   13500    253.40534   -167.31743   -134.33294   -167.31743            0    4403.2763    17.898282     22.97632    19.323877  -0.15698063   -6.9125978  0.052627249    7946.6866    5529.9634    1535.3452    6144.5204    1112.9888   -741.63973     1485.901 
   14000    243.25685   -166.24381   -134.58029   -166.24381            0    6162.6158    17.939444    23.046271    19.211157  -0.14250226   -6.8631759   0.20320197     7942.609    6632.5209    5924.2834    5931.0431    2669.8263    -508.9497    1404.7453 
   14500    242.17534   -167.20147   -135.67872   -167.20147            0    8030.6128    18.036055    22.827538    19.183856 -0.0015551429   -6.8923292   0.21216785    7898.3527    9441.0552    7715.0376    6935.7456   -1745.6884    1393.4831     999.1899 
   15000     248.9332   -165.97764   -133.57526   -165.97764            0    2289.8937    18.194415    22.564725    19.424327   0.11228346   -6.9731717  0.049496134    7974.6957    3277.1958     826.8263    2765.6589    770.85966   -1343.6544    1691.0979 
   15500     237.9064   -164.40392   -133.43684   -164.40392            0    4979.0528    18.214091    22.284888    19.521207   0.16331635   -7.0261549  -0.18931803    7923.6378    5887.4769    5579.5742    3470.1073   -1214.6711    1901.0846    1344.8131 
   16000    240.99413    -164.3489   -132.97991    -164.3489            0    3578.9415     18.27482    22.216642    19.566717  0.069288925   -7.0361784   -0.2624848    7944.1875     1565.475    5176.0628    3995.2866    1761.6241   -568.62056    1110.4978 
   16500    245.17206   -165.08724   -133.17443   -165.08724            0    7553.5019    18.171215    22.478006    19.444622 -0.0051413353   -7.0196052 -0.028785225     7942.208    6883.5783     7926.917    7850.0103   -1369.2005    181.46276    925.56642 
   17000    256.07081   -166.62666   -133.29522   -166.62666            0    4109.4866    17.998513    22.867946    19.300311 -0.045907629   -6.9761301   0.27978245    7943.7961    5610.5372      3728.43    2989.4926   -2489.2183    686.59863   -2103.7699 
   17500    239.84886   -164.73742   -133.51751   -164.73742            0     3552.334    17.957612    23.043086    19.181525  -0.10649717   -6.9530007   0.29439732    7937.2916    6764.7715    282.89712    3609.3333    1511.5685   -1096.7974   -1415.0875 
   18000    236.02391   -166.02883   -135.30679   -166.02883            0    3463.5478     17.94344    22.958309      19.2203  -0.13038586   -6.9260117   0.09297692    7917.8226    3787.8437    1129.5123    5473.2875   -1483.1353    64.386673   -1241.1453 
   18500    241.99891   -166.19888    -134.6991   -166.19888            0    5226.8331    18.135969    22.635582    19.343371  -0.16851872   -6.9688367  -0.11687258    7940.8062    4297.6028    5489.6525    5893.2439    1812.6495   -491.19507    141.64576 
   19000    242.08449   -165.46971   -133.95879   -165.46971            0    4779.8989    18.233332    22.338676    19.430513 -0.081998381   -6.9618549  -0.13546479    7914.2131    5675.2276    3127.4569     5537.012    236.54567    433.85577    3872.9345 
   19500    246.73949   -166.16497   -134.04813   -166.16497            0     3682.771    18.283609    22.258515    19.525509  0.080412408    -6.942532 -0.0014620977    7946.2179    2700.2947    4923.6533    3424.3649   -663.48136   -1485.0225   -1769.3734 
   20000    230.37782   -165.24566   -135.25854   -165.24566            0     4059.545    18.145372    22.410185    19.485033   0.15759904   -6.8543785  0.080071778    7923.4165    4683.6416    3912.3457    3582.6476   -1903.4019    547.77346   -2986.3928 
   20500    235.19537   -165.36854   -134.75434   -165.36854            0    5805.1109    18.047849    22.710367    19.288619 -0.010489804   -6.7789584 -0.012904167    7905.8892    8855.6483     2855.124    5704.5604    658.81236   -258.59059    1857.0007 
   21000    242.09547   -165.79111   -134.27876   -165.79111            0     1161.796    18.095729    22.995987    19.142632  -0.16208276   -6.8269995  -0.10824068    7965.8074    1694.3214   -448.95196    2240.0185    1252.7848    2102.6921    2772.3925 
   21500    231.87215   -166.01721   -135.83558   -166.01721            0    5056.0259    17.972837    23.033976    19.084244  -0.22241243   -6.8986405 -0.077024736    7900.6078    4491.2067    3720.1083    6956.7628   -387.88146    1176.0972   -2849.6268 
   22000    244.40343   -165.77102   -133.95826   -165.77102            0    3644.9445    17.956118    22.919446    19.257829 -0.063885768   -7.0976619  0.043216764    7925.4493     2264.831    5928.3928    2741.6097    3240.1397    2903.7924   -3011.8922 
   22500    242.04051   -164.76002   -133.25482   -164.76002            0    4708.5633    18.101446    22.670297     19.44646   0.24607373   -7.2705078    0.1557415    7980.1497    4912.5992    2380.5335    6832.5572   -2799.9347    1805.5795   -2400.1577 
   23000    242.69164   -166.96093   -135.37098   -166.96093            0    8080.8535    18.303387    22.219152    19.406804   0.21850938   -7.3119751  0.034813332    7892.4705    4052.3774    10667.376    9522.8067    -925.0207    2.5389062    1558.2671 
   23500     241.2424   -165.00452   -133.60321   -165.00452            0    5393.3665    18.421508    22.182128    19.492759 -0.050542976   -7.2629257  -0.14589535    7965.2919    4880.5986    7620.0233    3679.4777    1990.9846    4780.3558   -263.56505 
   24000    240.64683   -162.94986   -131.62608   -162.94986            0     6526.858    18.162145     22.40766    19.466935   -0.1691752   -7.0163287  -0.13480365    7922.4813    7596.3907    6505.7855    5478.3977    1657.2218    723.03845    2449.1953 
   24500    251.71883   -165.79532   -133.03034   -165.79532            0    3206.4155    18.017728    22.767934    19.436998  -0.11981488   -6.8447815  0.041028271    7973.5703    2684.6996    3929.8396    3004.7073    1444.6272    609.65418    678.62072 
   25000    243.52634   -164.45424   -132.75564   -164.45424            0    2235.5149    17.945042    22.920911    19.242183 -0.067164058   -6.7249803   0.20600436    7914.6311    6466.6932     910.1772   -670.32572    404.06299    371.93882    1051.8116 
   25500    239.09324   -163.43383   -132.31227   -163.43383            0    6406.7653    18.035451    23.006367    19.223208  0.036965457   -6.7210471   0.21332409    7976.2895    6303.7938    4202.3054    8714.1966   -2828.1759   -713.98883   -826.27516 
   26000    249.02735   -164.58822   -132.17358   -164.58822            0    5443.7535    18.070824    22.762061    19.240567  0.065306541   -6.7863977  0.026302535    7914.2069    3283.8603    7501.7867    5545.6134    1487.7367     2449.726    2644.7413 
   26500    232.15271   -165.02723   -134.80908   -165.02723            0    3144.1751     18.18864     22.50159    19.484965 -0.019380586   -6.9306953  -0.11312467    7974.6764   -746.20312    3111.5085    7067.2199   -952.92122    -247.5289   -2965.3864 
   27000    251.02872   -164.17356   -131.49841   -164.17356            0    3733.5966    18.196023    22.221267    19.581189 -0.075529619   -7.0639687  -0.12227017    7917.4319    9055.2076    1858.5536    287.02858    1433.4171   -906.83169   -240.91313 
   27500     236.6866   -164.33031   -133.52201   -164.33031            0    5223.9418    18.230877    22.287733    19.594899 -0.091371175   -7.1202654  0.059506013    7961.8959    4445.2182    7520.0502     3706.557    707.47439   -2175.3401    1694.7471 
   28000     241.2115   -165.67163   -134.27434   -165.67163            0    9003.8285    18.085669    22.575102    19.425617  -0.11766665   -7.0890761    0.1918293    7931.2042    10888.637    6954.0462    9168.8019    607.62612   -1075.5543    543.75321 
   28500    247.50538   -165.91029   -133.69376   -165.91029            0    6689.9624    17.910043    23.060436    19.140133  -0.18795796   -7.0286947   0.11678473    7905.1313    9678.0314    5347.2056    5044.6502    2239.9288    1696.7062   -1499.0585 
   29000    248.19112   -166.16931   -133.86353   -166.16931            0    3951.8224    17.914744    23.417798    19.023124   -0.1230857    -6.939536 -0.031040779    7980.6539    6365.9413    1581.8394    3907.6865    1877.9387    487.71668    2349.2581 
   29500    252.01403   -164.54631   -131.74292   -164.54631            0    4999.0975    17.898325     23.13014    19.065778  0.010857639   -6.8635749 -0.098226323    7893.0558    451.35733    5786.7775    8759.1577    737.89564     884.7113    1820.0408 
   30000    250.31087   -163.16258   -130.58087   -163.16258            0    2267.4893    17.969023    22.794618    19.497316    0.1179032   -6.8269235 -0.090545175    7986.0424    2509.3358    445.62399     3847.508    563.88795   -1074.1325    1409.4804 
   30500    250.87327   -164.85682   -132.20191   -164.85682            0    8757.5723    18.075431    22.417834    19.676722  0.099252005   -6.8328217 -0.028568281    7973.2442    9971.1548    9222.6939    7078.8683    1549.7669   -829.90488    4780.9322 
   31000    256.19963   -165.05956   -131.71135   -165.05956            0    10373.978    18.197148    22.281974    19.513005   0.03213043    -6.888208  0.011247539    7911.9061    9083.7292    12321.413    9716.7924   -1634.4139   -885.52482    790.42455 
   31500    248.50884   -165.08993   -132.74278   -165.08993            0    6912.8855    18.279522    22.546671    19.411899  -0.11502582   -6.9527462 -0.0098456777    8000.4658    8687.9946    6696.2166    5354.4454   -2389.8365   -1403.1822   -1018.0169 
   32000    244.56133   -165.49911    -133.6658   -165.49911            0     4699.018    18.098793    22.621152    19.288932  -0.24711634   -6.9460058  0.032134548    7897.1887    4323.6369    5086.2557    4687.1614   -979.56891    356.53537    -213.6045 
   32500    244.79297   -164.89397    -133.0305   -164.89397            0    4717.0209    17.948897    22.866256    19.391201  -0.26648569   -6.9533735   0.09039076    7958.6159    6799.3835    4175.0396    3176.6395    1440.9727   -3401.8343   -338.82133 
   33000    248.60121   -164.91647    -132.5573   -164.91647            0    1631.0886    17.919227    22.960199    19.368638  -0.10815318   -7.0253629   0.11429955    7968.8198    4185.1329    159.13485    548.99819    384.45322   -208.87516    2449.2465 
   33500    242.03399   -165.48704    -133.9827   -165.48704            0     6844.822    18.059239    22.810092    19.194991   0.13448755   -7.1634613   0.11933271    7907.0486    6906.8265    5263.0988    8364.5406    431.40839    571.42508   -1906.8976 
   34000    237.15647   -166.12233   -135.25287   -166.12233            0    1326.2405    18.314334    22.608081    19.241271   0.26188424   -7.2637012 -0.048430542    7966.8857     1380.661    1714.7957    883.26471   -1237.8043    1089.2148   -1085.9845 
   34500    239.15682   -167.45885   -136.32901   -167.45885            0     6905.151    18.272141    22.282191    19.424068   0.22489007   -7.1683799  -0.22939657    7908.3798    7493.3858    6860.4752    6361.5918   -765.45963    948.83256    1187.1826 
   35000    239.28276   -167.70088   -136.55464   -167.70088            0    5977.1481     18.21761    22.286677    19.551098  0.055900777   -6.9926448  -0.17795037    7937.9411    6830.6303    6373.7352    4727.0789    1522.2396   -1392.8971    3028.9973 
   35500    240.09019   -165.95302   -134.70168   -165.95302            0    3137.8046    18.140733    22.487733    19.449923 -0.085648632   -6.7909542  0.075848122    7934.4789    1943.8492    3459.0198    4010.5449    197.03864    1285.6894    8.1841047 
   36000    250.06555    -166.9655   -134.41573    -166.9655            0    4075.9234    18.100601    22.775507    19.235911  -0.23228248   -6.6835342   0.30454325    7930.0115     1864.991    5848.9553     4513.824   -516.00912    -1159.082    -2969.674 
   36500    252.41256   -166.25958    -133.4043   -166.25958            0    4670.7859     18.00833    22.921482    19.230159  -0.26294692   -6.7040144   0.28590082    7937.7791     3576.819    2501.2231    7934.3154    860.66993   -2576.7333   -392.44881 
   37000    249.13501   -166.20755    -133.7789   -166.20755            0    6823.0834      17.9424    22.875315    19.301431  -0.15660213    -6.847682  0.059352498    7922.0421    7354.2297     6761.692    6353.3287    -1016.714    1215.8886   -4294.6018 
   37500    246.66966   -166.08375     -133.976   -166.08375            0    5975.1569    18.007628    22.802083    19.405504  0.077480068   -7.0559427  -0.26480496    7968.1218    5172.1266    7856.5521     4896.792    1226.8106   -293.15417   -439.07525 
   38000    251.29253   -165.40224   -132.69276   -165.40224            0    4377.4459    18.097512    22.557809    19.431004    0.3608289   -7.2407555  -0.35518473    7932.5176    3022.6353     3735.173    6374.5294    316.02759    289.08391   -221.78307 
   38500    247.17485   -165.02468   -132.85118   -165.02468            0    5364.2572     18.24027    22.386809    19.502385   0.49936251   -7.3248146  -0.14441596     7963.632    7883.5413    4490.0136    3719.2165   -1562.6825    4579.9706    5022.8759 
   39000     240.6194   -166.02617   -134.70596   -166.02617            0    5722.0976    18.253119    22.344843    19.481826   0.24345514    -7.182921   0.17960815    7945.9173    6590.7149    5937.0557    4638.5222   -65.846361    1466.9844    1744.2272 
   39500     247.3248   -165.26351   -133.07049   -165.26351            0    4387.0722     18.14249    22.491435    19.464193  -0.24632442   -6.9120503    0.3543816    7942.3765    8017.6316    2218.3277    2925.2574    1155.4218   -1401.2474    1864.0564 
   40000    247.01597   -166.11903   -133.96621   -166.11903            0    5089.4126    18.053515    22.651323    19.473557   -0.4798974   -6.7117714   0.26530239    7963.4386    5516.8744     5290.311    4461.0523    2128.8874   -101.27873    -2454.389 
   40500    245.29943   -166.40196   -134.47257   -166.40196            0    8434.3861    18.033055    22.702112    19.359935  -0.36540632   -6.6750665   0.12307507    7925.7334     7804.055    10223.576    7275.5277    1440.7699   -1341.9482    609.23531 
   41000     246.2849   -166.59479   -134.53712   -166.59479            0    6510.8999    18.104526    22.783625    19.330448 -0.058490271   -6.7357233  0.072007754    7973.5538    6068.1236    7878.3395    5586.2366    359.51734    1343.4053    3466.9115 
   41500    251.31021   -166.40668    -133.6949   -166.40668            0    9269.8026     18.07105    22.607084    19.266466   0.23689265   -6.8036987  0.079284931    7871.0011    8242.2891    8041.0156    11526.103    -840.7166   -2650.1209   -251.26203 
   42000    231.34648   -164.22003   -134.10682   -164.22003            0    600.03057    18.196325    22.662397    19.477773   0.28092884   -6.9502266  0.013277312    8032.0948     948.5543    1624.2176   -772.68022   -923.75408    2049.6397    -690.2843 
   42500     247.9522   -165.47049    -133.1958   -165.47049            0    8703.3268    18.040453    22.501962    19.432525  0.090268765   -6.9399713 -0.083833312    7888.5478    7313.7783    8484.6336    10311.568   -78.083427    470.81356    1201.4442 
   43000    250.70268   -165.88134   -133.24864   -165.88134            0    1523.8663    18.145069    22.622302    19.489624  -0.20659786   -7.0055093 -0.034484043    8000.1641    3159.3098    2489.6063   -1077.3171    2347.2617   -1624.2486    239.11761 
   43500    256.12341   -166.53752   -133.19922   -166.53752            0     2171.217    18.195239    22.651727    19.320709  -0.33723072   -7.0407979   0.10264655    7963.0993    3482.1464     3155.359   -123.85438    2809.8944    1431.6715   -1517.3598 
   44000    255.91854   -167.24822   -133.93659   -167.24822            0    8051.5168    18.029564    22.727483    19.176797  -0.26798633   -6.9477253   0.20801117     7858.011    7756.4965    6831.9135    9566.1406    107.64192   -2688.2858    1764.2314 
   44500    241.79895   -165.36966   -133.89591   -165.36966            0    5250.3975    18.035063    22.980488    19.441945 -0.0074124534   -6.9242312   0.23757048    8057.8027    6687.6446    5684.7139    3378.8342   -794.65388    2403.9061   -1664.1216 
   45000    231.37708    -165.1917   -135.07451    -165.1917            0    6236.4144     17.84442    22.738983    19.348712   0.19385674   -6.8039094  0.069368389    7851.0102    9560.6222    6111.9285    3036.6925    1195.3078   -806.10335    2726.7889 
   45500    243.16204   -167.09565   -135.44447   -167.09565            0    4641.0008    18.076302    22.739211    19.377852   0.16302786   -6.8690528  -0.11221218    7965.0886    3614.0591    3443.4315    6865.5118   -3463.5772    395.85231   -3987.2488 
   46000    250.21369   -166.56672   -133.99766   -166.56672            0    4883.6838    18.289192    22.542368    19.407602  0.053725567   -6.9219084  -0.18997353     8001.399    4649.7311    5376.4729    4624.8475   -676.81368    -1361.411   -146.77293 
   46500    241.32172   -165.21646   -133.80483   -165.21646            0    5343.8887    18.215485    22.304742    19.346746 -0.048259098   -6.9040112 -0.0097716678    7860.4222    2591.4078    7586.2171    5854.0411    2822.8656    1257.4478   -922.38361 
   47000    246.43964   -165.91895   -133.84114   -165.91895            0    1693.1673    18.186614    22.555172    19.545619  -0.13758882   -6.9612791   0.18589888    8017.6562    1924.3439    1695.6848    1459.4733    1628.9288   -1366.2617   -2136.3001 
   47500    248.94807   -164.53088   -132.12656   -164.53088            0    7585.3914    17.956975    22.683617    19.415034  -0.13321434   -6.9395275   0.19831026     7908.309    10816.401    6134.4898    5805.2837     2004.511    565.31004    651.47245 
   48000    245.53279   -165.35949   -133.39972   -165.35949            0    3768.8353     17.95404    22.967138    19.301751 -0.086190027   -6.9560127   0.11244535    7959.1333    4127.6146     2733.737    4445.1542    620.92914    619.21022   -2554.5541 
   48500     248.2565   -165.88951   -133.57521   -165.88951            0    7109.6217    18.111876    23.023929    19.116791   0.13011739   -6.9638242 -0.074312004    7971.8272    5379.2634    9512.3712    6437.2304   -1342.7764   -438.39166   -589.54801 
   49000    247.45719   -164.00493   -131.79467   -164.00493            0    4606.5734    18.150218    22.776244       19.139   0.27471707   -6.8801606  -0.19142356     7911.944    5674.6201    3709.6461     4435.454   -1401.6195   -2134.8965    254.87009 
   49500    260.40033   -162.63747   -128.74247   -162.63747            0    2630.2439     18.16328    22.525791    19.637737   0.21345483   -6.8192155  -0.11808045    8034.6279    1340.5015    5657.8175    892.41256   -686.38206    1303.9544    -367.8126 
   50000    255.30549   -164.56413    -131.3323   -164.56413            0    8516.6002    18.088559    22.261394    19.809741  0.089739227   -6.7175724   0.05000435    7976.9179    10308.252    7244.1043     7997.444   -164.93597   -1641.4676   -1356.0722 
   50500    245.89064   -165.72177   -133.71542   -165.72177            0    7573.6219    18.165062    22.204299    19.567816 -0.073870724   -6.7618603   0.13782133    7892.5313    7768.8408    7317.2803    7634.7446    -198.7514    -568.1621   -2308.2131 
   51000    244.35353   -164.51353   -132.70726   -164.51353            0    3788.9604    18.312663    22.592335     19.34356  -0.23783454   -6.8951778  0.074435922      8002.93    4507.9269    3028.4404    3830.5139    186.13306    467.16805    773.65877 
   51500    244.91098   -165.15195   -133.27312   -165.15195            0    4966.1226    18.131231    22.807968    19.265454  -0.23319866   -6.8653499  0.012607101     7966.969    3343.0327    4422.1129    7133.2222    1819.2129    512.07226   -1799.0709 
   52000     243.3733   -166.97771   -135.29903   -166.97771            0    324.85129    17.937246    22.839052    19.303129 -0.069535687   -6.8449878 -0.020990137    7907.9073    1424.2231   -2401.8677    1952.1986   -720.57685   -2272.6978    1492.5633 
   52500    243.70712   -164.46506   -132.74293   -164.46506            0    5695.2459    17.998341     22.76088    19.504054   0.10791177   -6.9217154 -0.031199026    7989.9934    5243.5989    6384.1673    5457.9715    2699.4504   -1953.1473   -371.23384 
   53000     240.7735   -165.08493   -133.74466   -165.08493            0    3974.5004    18.130712    22.592558    19.456625   0.15548373   -7.0174604 -0.072613949     7969.806    1059.6652    5697.5287    5166.3072   -150.73997    606.22248    800.48257 
   53500    260.60467   -167.36329   -133.44169   -167.36329            0    5708.7627    18.293954    22.423988    19.397412  0.032313474   -7.0835333 -0.090109061    7957.2723    4289.0502    5414.0573    7423.1805    2038.8339   -1243.3473    1427.5249 
   54000    245.35909   -164.18309   -132.24593   -164.18309            0    9781.2387    18.302808    22.381585    19.436514  -0.10875383   -7.0982934 -0.0063915494    7962.0873    8645.2334    11903.008    8795.4743    892.97812    2040.8989   -1361.6102 
   54500    239.92948    -166.3783   -135.14789    -166.3783            0    3719.7801    18.047028    22.499655    19.491809  -0.22456613   -6.9798212   0.21975101     7914.686    4573.0527    3741.0671    2845.2205    1272.6533   -665.58313    73.518116 
   55000    248.56776   -166.36396   -134.00915   -166.36396            0    3338.2807    17.903099    22.820944    19.433377  -0.22870719   -6.8172082   0.33813673    7939.8095    5054.5097     3803.433    1156.8994    -1785.814    877.40458   -99.774742 
   55500    231.61513   -165.80092   -135.65274   -165.80092            0    4558.7238    17.983381    23.110802    19.210332  -0.13294667   -6.7097808   0.14274713     7984.013    4911.2511    4388.6815    4376.2388     -2447.98   -102.45558    1129.0091 
   56000    248.98481   -163.95149   -131.54239   -163.95149            0    6352.2072    17.996062    22.968617    19.052725 -0.052910603   -6.6441571  -0.12796933     7875.342    7362.2731    4717.8747    6976.4739   -788.35381     -2031.27    100.14786 
   56500    242.28018   -164.64341   -133.10702   -164.64341            0    2360.0754    18.166375    22.878155    19.305211   0.13699589    -6.795397  -0.26038478    8023.4992    3342.4203    1859.0641    1878.7418   -601.95338    118.07678    543.04158 
   57000    248.77501   -165.34663   -132.96484   -165.34663            0    4021.7611    18.099131    22.460648    19.460134   0.24725587   -6.8974855 -0.060219812    7910.8989   -289.20174    5560.2625    6794.2226    3.1101707     652.8092    2753.6985 
   57500    243.71885   -165.49867   -133.77501   -165.49867            0    5201.0736    18.165974    22.328388     19.57601   0.16142977   -6.9939688   0.19123769    7940.3606    4810.3738    5516.0502    5276.7968   -1042.6637    -1831.637    -499.0996 
   58000    243.49316    -165.5435   -133.84922    -165.5435            0     4725.572    18.243595    22.403863    19.563118  -0.10047827   -7.0531408   0.20418105    7995.9748    3976.2571     5742.775     4457.684    656.59218    145.19629   -2015.1868 
   58500    247.96504   -166.01101   -133.73465   -166.01101            0    5312.7561    18.132482    22.482177     19.40625  -0.25138081   -6.9772067  0.087142524    7911.1068    4553.6635    5046.8173    6337.7873    -89.97271    1795.6285   -247.26164 
   59000    249.26281   -165.19492   -132.74963   -165.19492            0    6394.5339    18.120269    22.795683    19.365178   -0.2182031   -6.9250184 -0.00080106387     7999.056    4498.5753    5651.5708    9033.4557   -830.65388   -463.39137    2113.7191 
   59500    251.66226   -165.38288   -132.62527   -165.38288            0    3251.3071     18.01954    22.933755    19.216198  0.017977427   -6.8737535  0.036477165    7941.2036    4074.8404    2844.6101    2834.4707    1236.1652     1072.249   -203.29552 
   60000    244.44073   -166.32952    -134.5119   -166.32952            0    3555.4754    18.013052    22.950769    19.235172   0.25779702   -6.8817819   0.10173325     7952.078    2763.7783    1336.9441    6565.7038   -3022.2574   -548.06942    1077.2407 
   60500    241.32319   -165.90703    -134.4952   -165.90703            0    5745.7201    18.051109    22.766965    19.446311    0.2833591     -6.92955 0.0049612594    7991.8305    7334.3506    7016.7174    2886.0923    187.68798   -380.64859    3112.7673 
   61000    238.78535    -165.0084   -133.92692    -165.0084            0    6214.7663     18.05517    22.357054    19.589411  0.086921952   -6.9165259   -0.1739797    7907.4693    8738.7061    5491.3742    4414.2185   -1407.0313   -1545.8675     1346.041 
   61500    245.22713   -165.25408   -133.33409   -165.25408            0    4753.4918    18.299161    22.239057    19.639272  -0.14586392   -6.9730671  -0.15507044     7992.321    3200.8455    6345.4758    4714.1542   -1098.2243     806.8854   -328.34827 
   62000    242.91382    -164.4733   -132.85443    -164.4733            0    5606.4941    18.356723    22.279836    19.357592  -0.23978598   -7.0124514   0.10883994    7916.9605     6602.385    5997.4261    4219.6712    2018.3402    229.91674    1397.0037 
   62500     242.7096   -165.71469    -134.1224   -165.71469            0    3868.4473    18.203334    22.709625    19.280385  -0.18748421   -6.9701565   0.26807541    7970.3356    4377.4827    2103.1107    5124.7485    1480.5062   -1765.2079   -4245.5033 
   63000    256.03822   -164.13646   -130.80926   -164.13646            0    2350.7033      17.9806    22.882824    19.324393 -0.063664134   -6.9128347      0.28446    7950.9614    580.74307    4831.9721    1639.3946    1042.6843   -317.58903   -836.34219 
   63500     247.9199   -165.64748     -133.377   -165.64748            0     5718.405    17.855021    22.981259    19.372651  0.026686104   -6.8334209  0.085487369    7949.1967    4291.9635    5739.6646    7123.5868   -240.83304    1028.5598     122.9974 
   64000    243.13615   -164.77709   -133.12928   -164.77709            0    2748.0928    18.009451    22.877717    19.414365   0.11897235   -6.8511125  -0.20379096    7999.0121    667.51935    2730.2234    4846.5356    3938.2722   -491.96486   -1399.4273 
   64500    243.27828   -164.98901    -133.3227   -164.98901            0    3175.1252     18.15825    22.645651    19.320685   0.20178817   -6.9380499  -0.35092526    7944.7699    38.056823    5564.7712    3922.5476   -521.88977   -1873.6829   -661.25254 
   65000     242.5461   -167.25245   -135.68145   -167.25245            0    4844.0389    18.233799    22.424079    19.346535   0.19567333   -7.0511334  -0.19868512     7910.337    2358.1712      5059.21    7114.7356    825.86868    202.14003    -1065.973 
   65500    241.15267   -166.01131   -134.62168   -166.01131            0    4842.8983    18.210447    22.456545    19.558416  0.057642971   -7.0941924   0.17049152    7998.2915     8856.033    5571.0303    101.63148    2393.9711   -1166.9703   -1154.6961 
   66000    261.10892   -165.42943   -131.44219   -165.42943            0    7114.1302    18.083915    22.541365    19.511043  -0.15730258   -7.0376387   0.38219466    7953.4059    7261.3991    7084.5008    6996.4908    2067.3808    1358.3127   -2761.3172 
   66500    250.30743   -164.49237   -131.91111   -164.49237            0    3387.1288    18.083451    22.753354    19.389079  -0.37114152   -6.9687842   0.28563833    7977.8143    5082.1724    1840.6987    3238.5152   -2583.5916   -214.93155    503.24488 
   67000    246.92796    -166.2108   -134.06943    -166.2108            0    2610.6123    18.088602    22.936102    19.136518   -0.3769072   -6.8713364  0.032869655    7939.3973    2848.5074    1066.9965    3916.3331    1464.8923   -1919.4704    94.453288 
   67500    248.22569   -166.38666   -134.07638   -166.38666            0    4262.5256    18.138279    22.933475    19.134014  -0.14856661   -6.8099211  -0.11310635    7959.2482    6230.5879    3034.3846    3522.6042   -1047.9787   -266.66831   -1158.2066 
   68000    244.17513   -166.15992   -134.37688   -166.15992            0    4372.0594    18.046101    22.740307    19.389529   0.18723578   -6.7541656  -0.11111377    7956.9561    6578.8193    5474.3305    1063.0284   -72.846614    597.52093    1668.5213 
   68500     251.0877   -165.33652    -132.6537   -165.33652            0    6833.5144    17.998549    22.565955    19.572633   0.35307089   -6.6980452 0.0087423579    7949.5118     4210.374    9387.9713    6902.1977    742.14741    1264.6374    1242.8663 
   69000    244.53509   -166.70743   -134.87753   -166.70743            0    4701.0281    18.149712    22.466307    19.519634   0.16318321   -6.7297385   0.13284717    7959.2676    6034.1223    4428.3674    3640.5945   -692.34819   -1047.7725   -2554.6686 
   69500    236.49507   -165.43712   -134.65375   -165.43712            0    5612.8442    18.416314    22.399642    19.308453  -0.34276538   -6.8980044   0.15216649    7965.1008    5359.0519    5385.8451    6093.6357    104.22657    860.38303    451.19541 
   70000    244.87659   -165.91459   -134.04024   -165.91459            0    6387.9846    18.264012    22.502084    19.222927   -0.6078343   -6.9969386   0.15244241    7900.2067    7376.5322    3541.7392    8245.6824    2006.8368   -2248.6129    627.41525 
   70500    229.03277   -165.01384    -135.2018   -165.01384            0    2957.3883    17.983466    22.751711    19.494691  -0.38736116   -7.0566214   0.13785941    7976.3432    4471.1613    4396.6984    4.3051157    547.40241       1250.9    1693.2886 
   71000    242.34879   -165.44883    -133.9035   -165.44883            0    8226.1862    17.840838     22.81903    19.449687  0.023195434   -7.0269045   0.15128326    7918.1737    8695.3957    8249.3786    7733.7844    -1553.508     1044.101   -148.07409 
   71500    253.39628   -167.20788   -134.22457   -167.20788            0    6025.6393    17.990399    22.883608     19.32844   0.17061516   -6.9925691  0.085808257    7957.2331    6846.4413    5930.7585     5299.718   -359.53317    1488.7969    272.14482 
   72000    255.38031   -164.02515   -130.78358   -164.02515            0    7252.0005    18.147812    22.755046    19.237008  0.059120827   -6.9393744 -0.011884255    7944.0049    8044.7104    6729.5225    6981.7686   -1001.6988    309.04328    327.38823 
   72500    246.96799   -165.96264   -133.81606   -165.96264            0    2718.8036    18.273112    22.686971    19.287058 -0.029189106    -6.874623 -0.053452689    7995.6732    659.10684    3232.6418    4264.6623     144.1476    123.50392    3318.4564 
   73000    238.79833   -166.04108    -134.9579   -166.04108            0    6234.3271    18.160275    22.537056    19.434892  -0.14887437   -6.7863578   -0.0219211     7954.296    4891.1972    6345.5935    7466.1906    3175.1309     1535.846    1304.6698 
   73500    247.31706   -165.15394   -132.96192   -165.15394            0    7422.2564    17.949292    22.438473    19.653697  -0.14459485   -6.6938056  0.046550098    7915.6191    7072.9839    8116.4178    7077.3677    486.92389    1324.5515   -1845.7638 
   74000    256.01897   -167.48787   -134.16317   -167.48787            0    6110.3682    18.049535    22.614989    19.696133 -0.0024647815   -6.6659702   0.10887393    8039.7648    7352.8659    6679.9531    4298.2855   -1459.9286    302.97334    259.10177 
   74500    246.03183   -165.68455   -133.65982   -165.68455            0    7247.6737    18.212345    22.541485    19.196736  0.096637755    -6.776904  0.018588034     7880.899    2381.4273    10176.206    9185.3875    1665.1594   -1143.8425   -1826.4314 
   75000    239.37147   -164.09815   -132.94037   -164.09815            0    5415.7139     18.32192    22.822632    19.065634  0.088702763   -6.9864219  -0.12510738    7972.3792    4320.1555    3349.2589    8577.7272    2150.9286    -458.4505    624.64555 
   75500    241.14921   -166.36558    -134.9764   -166.36558            0    5087.2383    18.147178    22.886818    19.291118 0.0096545563   -7.0592047  -0.15148451    8012.2019    3783.1976    6947.9918    4530.5254     1847.045   -138.55235   -2907.2627 
   76000    249.38357   -165.75489   -133.29388   -165.75489            0    8689.4445    17.889631    22.687421    19.376936   0.05559032   -7.0404081 -0.036941229    7864.5092    9548.0557     6939.698    9580.5798   -1909.2768   -5.4902442    93.754053 
   76500    237.27001   -168.16718   -137.28294   -168.16718            0    6668.6159    18.083396    22.741265    19.499383  0.054117636   -7.1121429   0.10799318    8018.9129    7107.6845    7557.7306    5340.4325    542.12429    1904.9519    645.01514 
   77000    235.36128   -167.11633   -136.48053   -167.11633            0    8859.2804    18.171711    22.483544    19.290639 -0.049609229   -7.0702567    0.1463683    7881.4698    7300.3001    10374.011    8903.5297    453.19049   -799.92753     -1826.74 
   77500     245.1838    -166.1236   -134.20926    -166.1236            0    3070.1693    18.291331    22.554207    19.329461 -0.096381955   -7.0209223  0.078864393    7974.3007    2785.1501    1026.2942    5399.0636    874.32968    1473.7444    3674.3858 
   78000    244.06233   -162.89086    -131.1225   -162.89086            0    2544.6938    18.236037    22.641807    19.410231  -0.10421983   -6.9153991 -0.012483266     8014.423    3324.1021     4066.297     243.6822    429.53866   -586.62653    114.27072 
   78500    238.27276    -166.4372   -135.42243    -166.4372            0    6361.8536    17.917475    22.628339    19.368924 -0.028530813   -6.6597617  -0.11038174    7852.9886    7768.6349    5142.8041    6174.1219    863.42887    484.97634   -721.72858 
   79000    244.71545   -167.17778    -135.3244   -167.17778            0    3630.5575    17.980159     22.82057    19.440864   0.11022872   -6.6394309  -0.11410291    7976.9264    6734.4071    1850.8374    2306.4279    589.33779   -1559.6401    3473.7985 
   79500    246.79125   -165.05919   -132.93562   -165.05919            0    1967.9579    18.106869    22.804674    19.329982     0.226786   -6.7179292  0.042703327    7981.7607    544.90836    4111.4868    1247.4786    191.12719   -1428.5115   -1289.5125 
   80000    252.48204   -165.48429   -132.61997   -165.48429            0    5199.6882    18.147765     22.55287    19.176108   0.12290791   -6.8818201   0.16377385    7848.4779    4346.0439    4924.9351    6328.0857    463.54673   -1070.8176     24.86324 
   80500    247.44019   -165.82739   -133.61934   -165.82739            0    3640.0607    18.342204    22.615323    19.465369  -0.26297816   -7.2340243  0.098231191    8074.5244    3711.4697    3509.0608    3699.6516   -323.81252    56.103321   -771.56431 
   81000    251.14045   -166.03742   -133.34773   -166.03742            0    5488.8725    18.036143    22.474187    19.440347   -0.4830695   -7.2228145 0.0015013571    7880.0993    4028.0461    7345.4948    5093.0766    1681.0672    1294.4398   -1499.9985 
   81500     234.5706   -164.92455   -134.39168   -164.92455            0    5412.7582    18.060707    22.674012    19.451514  -0.34435061   -7.1040271 0.0063237946    7965.5642    4097.0612    6143.6641    5997.5494   -1376.2451   -103.08804    717.04118 
   82000    237.35666   -165.51011   -134.61459   -165.51011            0    5782.0867     18.15553     22.78462    19.285754  -0.11689054   -6.9201396  0.078891787    7977.8772    7520.3687    5907.1595    3918.7318     1102.619    1275.9808     1148.573 
   82500    252.45309    -164.5564   -131.69585    -164.5564            0    5538.9612     18.12676    22.775774    19.165965   0.11089152   -6.7653602   0.14950691    7912.6876   -1223.7367    6863.8324    10976.788   -681.50304   -1917.6654   -1131.0491 
   83000    239.85885   -164.17682    -132.9556   -164.17682            0    5266.8072    18.115281    22.792241    19.363169   0.23330815   -6.7636242  0.069537697    7994.8172    4098.5067    7785.6279    3916.2869   -737.11108     2464.968   -834.92357 
   83500    244.03728   -165.04875   -133.28365   -165.04875            0    2275.5906    17.979303    22.686234    19.497341  0.076638785   -6.7250514 -0.049461092    7952.6272    2834.8171     2078.158    1913.7967    1967.5795   -732.17919   -1354.0769 
   84000     263.0512   -165.51799   -131.27794   -165.51799            0    5611.0967    18.012793    22.513968    19.577544  -0.15906364   -6.8030201 -0.095981113    7939.4663    7140.9651    5597.2613    4095.0637    2043.4898    857.51384   -915.80297 
   84500    247.80542    -165.5654   -133.30982    -165.5654            0    1153.3525    18.288154    22.476549    19.532498  -0.31892447   -7.0340933 -0.0093742031    8028.9229    246.90613    975.75085    2237.4005    737.14559    1026.9179    42.460302 
   85000    245.51815   -165.84319   -133.88533   -165.84319            0    6129.1731    18.321359    22.305752    19.237103  -0.22525374   -7.1564968   0.15292523    7861.6594    4851.3302    7786.1115    5750.0776    1702.7001    583.24472    2866.3717 
   85500    248.65421   -164.95641   -132.59034   -164.95641            0     5265.771    18.299395    22.643283    19.383696 -0.011723839   -7.1630084   0.26550378    8031.7968    8484.4886    1112.0434    6200.7811      896.738   -1638.1529   -1447.8845 
   86000    252.77635   -165.96192   -133.05929   -165.96192            0     3779.687    17.957786     22.81437    19.395158   0.13509565   -6.9937141     0.206305    7946.1103    1110.2727     6337.739    3891.0493   -515.58665    1377.3701    -2813.831 
   86500    245.11179    -166.7242   -134.81923    -166.7242            0       5990.5    17.832699    22.993946    19.326178   0.12712631   -6.8198337  0.028868195    7924.5851     7695.783    4169.0528    6106.6641    1298.8844    260.75214   -567.56917 
   87000    236.45107   -165.82542   -135.04778   -165.82542            0    3558.5517    17.946693    23.016485    19.253968  0.029220321   -6.7897397  -0.11909342    7953.2323    4516.3173    3008.2072    3151.1307    25.631208   -2586.9054   -792.99388 
   87500    242.54002   -165.82295   -134.25274   -165.82295            0    5677.6809     18.12089    22.683662    19.220866  -0.03705576    -6.841579  -0.07704512    7900.7015    10509.256    2257.2047    4266.5819   -1903.0961    1712.9836    2965.0496 
   88000     250.0589     -165.692   -133.14309     -165.692            0    5527.0173    18.354018     22.49292    19.358298 -0.078218842   -6.9236485   0.11242034    7991.7921    4066.5864    7029.8259    5484.6396    1941.9123   -1225.5914      514.447 
   88500    243.90521   -165.67205   -133.92414   -165.67205            0    4048.8134     18.27375    22.354571     19.43156  -0.11515754    -6.950115   0.19497191    7937.8284    4626.1467    3199.3862    4320.9072    72.873211    2539.0701     209.1342 
   89000     234.2634    -166.9027   -136.40982    -166.9027            0    4390.6016    18.172524    22.378645    19.480238  -0.13465723   -6.8900677  0.080171405    7922.1545    3378.8722     5356.283    4436.6495    1502.4623   -544.69881   -46.330932 
   89500    232.33624   -166.83184    -136.5898   -166.83184            0    3023.5219    18.027613    22.702334    19.409612 0.0030565868   -6.8486415  -0.10520804    7943.7509    2802.9358     4978.741    1288.8888   -2958.9956    694.88393   -788.93753 
   90000    235.93236   -166.62529   -135.91517   -166.62529            0    6309.1494    17.930389    23.154808    19.173363   0.24609198    -6.819505  -0.16388972    7960.2954    6360.3038    4263.6851    8303.4593    -168.8245   -456.91159   -257.48833 
   90500     246.2803   -165.39759   -133.34053   -165.39759            0    3475.3807    17.817332    23.300298    19.039121   0.35073288   -6.8033336 -0.086500574    7904.0749    3623.3909    248.52792    6554.2232     -2132.11   -1016.7865   -1070.9266 
   91000    240.66006    -165.2399    -133.9144    -165.2399            0    2834.3839    18.013652    23.098803    19.295912   0.12803928   -6.9440107 -0.056028451    8028.9092    2366.9961    2928.7377    3207.4179    1478.1415    84.343486   -232.86698 
   91500    233.20772   -166.71876   -136.36328   -166.71876            0    5601.0843    18.150642    22.340143    19.477774  -0.21055025   -7.0463921 -0.0045848069    7898.0025    7053.6252    4345.0978    5404.5299    1945.4859     815.1541    2207.7818 
   92000     238.7811   -165.74117   -134.66023   -165.74117            0    3679.5552    18.292391     22.13466    19.606087   -0.2702454   -7.0671511  0.045504985    7938.4231    5852.6573      4860.55     325.4583   -957.48454    -619.9872   -2473.2723 
   92500    235.65938   -165.98846   -135.31386   -165.98846            0    4961.1027    18.284064    22.308876    19.587468  -0.13499756   -6.9814021   0.06696575    7989.6678    3619.3665    6680.0566    4583.8851   -3580.1847   -662.94549   -5055.0139 
   93000      242.863   -165.23855    -133.6263   -165.23855            0    6831.7963    18.044437    22.607923     19.38484  0.067925335   -6.8292954  0.053548325    7907.9921    8247.6358    4888.6496    7359.1037    -1688.223   -1990.5454    1649.8488 
   93500    237.48325   -166.10753   -135.19553   -166.10753            0     4329.124     18.02532    22.927976    19.343476   0.17308646   -6.8330376 -0.012451017    7994.3512    6107.7985    2874.3595    4005.2139    65.460394    1294.6245    671.48682 
   94000    242.94333   -166.67074   -135.04803   -166.67074            0    8346.1652    17.963876     22.91793    19.174126   0.10304412   -6.8525236 -0.079763323     7893.889     6264.149    8026.5703    10747.776   -1304.1974   -100.41036     2491.005 
   94500    239.19226   -165.56747   -134.43302   -165.56747            0    4189.1906    18.055663    22.860255    19.254889 -0.050661042    -6.970837 -0.092548104    7947.5911    5907.2118    4831.3298    1829.0302   -458.49551    738.94412    601.25326 
   95000    227.86288   -165.95393   -136.29417   -165.95393            0     3447.375    18.120916    22.652423    19.432798  -0.15723451   -7.0656723 -0.023016221    7976.8263    3698.1951    4378.3009     2265.629    807.48079   -2098.0298    2762.6859 
   95500    235.70761   -164.52409   -133.84321   -164.52409            0    5874.7821    18.118083     22.28423     19.50954 -0.081534554   -7.0788752  0.070992748    7876.9289    4636.9294    7838.5276    5148.8894   -4094.0293     2358.846   -533.19948 
   96000    248.80042    -164.8632   -132.47811    -164.8632            0     98.30367     18.38196    22.280568    19.641972  -0.01746795   -7.0924597   0.11251037    8044.5757   -2020.0915    2545.7235   -230.72095    1222.8144   -303.60653   -1189.6552 
   96500    252.77243   -165.57584   -132.67372   -165.57584            0    7116.6901    18.286489    22.281528    19.390423  0.045695779   -6.8795075 -0.015459752    7900.6456    4771.8819    6697.0858    9881.1027   -1391.8856   -2008.7525    -813.2636 
   97000    243.44027    -165.6581    -133.9707    -165.6581            0    3600.1547    18.156428    22.736781    19.301271  0.023701517   -6.6555464  -0.22996497    7967.9263    5383.0832    1986.0653    3431.3155   -1694.0665   -1398.5322    623.62245 
   97500    241.29547   -164.40871   -133.00049   -164.40871            0    7008.0203     17.92733    22.968276    19.286626 -0.00027693639   -6.5655767  -0.18053489    7941.4586    9519.0303    6042.6328    5462.3978    1445.5635    180.79259   -2166.6452 
   98000    235.60815   -166.05157   -135.38365   -166.05157            0    3824.3739     17.82095     23.00598    19.342938   0.09960707   -6.6741534  0.041214328    7930.3807    5177.5067    3919.9327    2375.6823   -1875.3186     540.9711     355.5653 
   98500    243.20601   -166.29923   -134.64233   -166.29923            0    4886.3679    17.971555    22.835391    19.391949   0.15080466   -6.9218576   0.17363026    7958.2134    8015.8138    989.47808    5653.8117   -1879.6094   -583.75137    406.34566 
   99000      241.674   -165.43224   -133.97476   -165.43224            0    6051.6477    18.174278    22.456763    19.359558 0.0028970169   -7.1719112   0.10412297    7901.3221    4260.2401     8618.389     5276.314    -639.2037     2406.948   -2316.5834 
   99500    255.64709   -165.68188   -132.40558   -165.68188            0    3100.7927    18.302504    22.417337    19.444691   -0.1649573    -7.231714 -0.043440665    7978.0289    1485.3153    3654.6267    4162.4362    2196.9433   -474.00418    587.37962 
  100000    247.62108   -166.14484   -133.91325   -166.14484            0    7933.4416    18.185186    22.427596    19.494942  -0.24797551   -7.0662446 -0.098468752    7951.0122    7451.9111    8837.7296     7510.684   -1492.4237    953.01468    1077.1032 
  100500    247.81118   -165.76928   -133.51295   -165.76928            0    4897.2173    18.088942    22.557983    19.461237  -0.15881276    -6.873965  0.010859498    7941.1583    5447.4741    5949.5512    3294.6265   -2459.0192    36.656729    975.69787 
  101000    243.51615   -166.51895   -134.82168   -166.51895            0    3963.9985    18.070489    22.867974    19.311313  0.091542668   -6.7119776   0.20506546    7980.1199    1717.2989    4228.9936    5945.7032   -880.37165   -1805.5244    -132.9719 
  101500    247.58928   -166.18603   -133.95858   -166.18603            0    7365.4868    18.036215    22.909227    19.118327   0.14031404   -6.6418786   0.20131923    7899.6112    6417.8158    6746.2557    8932.3888   -2566.6239     505.3409   -2520.7818 
  102000     240.1066    -165.6173   -134.36384    -165.6173            0    3041.0586    18.082545    22.945442    19.191936  -0.11906803    -6.740178 -0.059729652    7962.9646   -74.242672     3642.058    5555.3606   -246.36088   -590.47485    1973.7785 
  102500    242.04844   -166.05941   -134.55319   -166.05941            0     6220.195    18.038934    22.793263    19.341753  -0.33936597   -6.9363492  -0.25410197    7952.6745    7331.5145    5395.9826    5933.0879    438.87392   -2318.7637    2765.0506 
  103000    246.12208   -165.43728   -133.40081   -165.43728            0     3594.864    18.146908    22.512989    19.452547  -0.19259682   -7.1670137 -0.081731161     7947.166    3570.8008    7665.7266   -451.93549    2142.4967     2124.903    3014.4706 
  103500    244.71405   -167.00004   -135.14685   -167.00004            0    7134.1483    18.237613    22.416614     19.46185  0.061916499   -7.2611957   0.29496406    7956.5016     5339.183    9334.6356    6728.6262   -1324.7562    1723.0034   -1552.1302 
  104000    248.72868   -165.99104   -133.61528   -165.99104            0    5494.0171    18.257033    22.468774     19.37312  0.099774391   -7.1637243   0.27969533    7947.1087   -759.40902    7933.4187    9308.0416    -598.9201   -208.53736    794.24038 
  104500    232.42002   -165.30246   -135.04951   -165.30246            0    1311.2114    18.202229    22.670273    19.343711 -0.039897109   -7.0052253 -0.023564674    7982.1726   -343.09385    2955.5095    1321.2185    1659.0955    2931.8747   -809.94321 
  105000    248.43472   -164.65911   -132.32161   -164.65911            0    7384.0964    18.010135    22.774596    19.297261  -0.13044826   -6.7840746  -0.17749558    7915.2259    7034.7285    8575.0715    6542.4891     315.6719    2011.3082    3510.4949 
  105500    247.08965    -164.7201   -132.55768    -164.7201            0    3895.5715     17.96843    22.888602    19.381456  -0.04000971   -6.6841778 -0.065250062    7971.0548    5953.1637    696.80262    5036.7481     4299.038   -844.32127    2034.3647 
  106000     238.9755   -164.52133   -133.41509   -164.52133            0    4984.7367    18.093775    22.863478    19.303579   0.20379106   -6.7381568   0.12755068    7985.6324    4830.7957    7265.9063    2857.5081   -4862.2541    490.41508   -1610.3562 
  106500    246.57825   -165.48146   -133.38561   -165.48146            0    8272.4385    18.105584    22.723556    19.116887   0.15046766   -6.8203251   0.17680835    7865.1317    4037.8168    8260.5573    12518.941    502.50101    367.08464   -1038.5509 
  107000    239.81976   -165.78739   -134.57126   -165.78739            0    2695.7108    18.229966    22.782972    19.361682 -0.085738586   -7.0292478  0.072458556    8041.5415   -997.91177    1832.0825    7252.9618   -409.22474    -1047.707   -345.23491 
  107500    248.55821   -165.53915   -133.18558   -165.53915            0    6222.3715    18.025039    22.512381     19.39416  -0.34963091   -7.0706223 -0.056119859    7869.8896    8544.7038    7268.9054    2853.5052    57.680766    1458.9683    25.686719 
  108000    246.25708   -165.53482   -133.48078   -165.53482            0    3219.2208    18.146775    22.558737    19.529836  -0.28751184   -7.1276847 -0.035816551     7994.896    2481.6858    3964.8627    3211.1141    1580.0801   -718.55696    364.60179 
  108500    248.07765   -164.61667   -132.32565   -164.61667            0    6485.4242    18.154754    22.629589    19.413352 0.0021616129   -7.0519581  0.043938104    7975.6773    8910.3006    5812.5097    4733.4622    331.49521    1488.2295    1052.4105 
  109000    242.47507   -165.36076     -133.799   -165.36076            0    978.22897    18.138574    22.721748    19.279132   0.29269703   -6.8715349   0.13799319    7945.7035     851.1712    1274.2239    809.29182   -1076.4607   -1802.0702   -1192.2097 
  109500    242.84042   -165.17557   -133.56625   -165.17557            0    6046.0176    18.037269    22.858815    19.311949   0.24872428   -6.7157594  0.070128137    7962.5212    8661.6546    4177.7672    5298.6309    1190.7793    1288.5858    918.83323 
  110000    241.16164   -165.08713   -133.69633   -165.08713            0    2780.0793    17.953892    22.917881    19.362653  -0.12746282   -6.6249816  -0.09528118     7967.057    1279.1974    1658.3633    5402.6771   -981.16811    -683.2962   -73.607631 
  110500    238.85349   -165.82378   -134.73342   -165.82378            0    3820.9704    17.984009    22.729824    19.340984  -0.44178953   -6.6289167  -0.14848703     7906.079    6754.5971    3804.6054     903.7086     2117.298      1584.68   -317.93727 
  111000    235.49487   -164.01211   -133.35892   -164.01211            0     2326.762    18.230643    22.629729    19.370834  -0.29077322   -6.8436273   0.11528805    7991.5247    1869.1605     2672.721    2438.4045    1983.0939    799.39786   -1509.6185 
  111500    240.38508   -164.80227   -133.51256   -164.80227            0    4005.3045    18.274559    22.398698    19.398282   0.10739862   -7.0398846   0.38623124    7940.2278    2111.6312    7446.5545    2457.7277   -380.10838    5148.9906   -2448.7838 
  112000    250.92253   -165.98013    -133.3188   -165.98013            0    2959.2486    18.135105    22.417125     19.49909   0.16595126   -7.0493459   0.28330813    7927.0996    1149.5911    4599.4782    3128.6766    1069.9582    746.90789   -1136.1175 
  112500    239.00165    -166.1213   -135.01166    -166.1213            0    7011.2639    18.133521    22.642883    19.512865 -0.087024326   -7.0258446 -0.003713325    8011.8884    7122.9122     6933.336    6977.5435    1743.5851    3316.4828    3772.8416 
  113000    241.27743   -165.84131   -134.43544   -165.84131            0    3433.7575    18.063849    22.681219    19.307798  -0.27208515   -6.9132224  -0.10523385    7910.6005    1426.1678    1775.2777    7099.8271   -459.66761    198.75709    1824.3765 
  113500    238.22709   -164.89114   -133.88232   -164.89114            0    3308.0527    18.138321    22.731625    19.395135  -0.19705884    -6.860771 0.0010843212    7996.8762    4884.4664    1257.0718      3782.62    5871.9851   -2040.7714     2481.725 
  114000    243.66613   -165.78571   -134.06891   -165.78571            0    5455.3351    18.109946    22.658521    19.393332  0.054979313   -6.8272308   0.14633487    7957.9488    6037.6402    5277.9949    5050.3703    1082.8621    973.20997    1108.6582 
  114500    248.85816   -164.51281    -132.1202   -164.51281            0    7769.2978    18.134511    22.571806    19.397072   0.22957732   -6.8151297   0.16592836    7939.7775    9066.8946    6297.1475    7943.8514   -61.534517   -1368.8703   -3257.6803 
  115000    254.91228   -166.34691   -133.16626   -166.34691            0     5113.124    18.088292    22.695355    19.440516  0.083874021   -6.8567461 -0.035598562     7980.725    5854.8836     5417.062    4067.4262   -807.04675    519.20532    1626.5504 
  115500    246.42479   -164.57773   -132.50185   -164.57773            0    7464.3532    18.087609    22.838837    19.370107  -0.23978974   -6.9542341  -0.24993834    8001.7902    5507.2122    7934.1656    8951.6817    436.48827   -340.21667    942.83768 
  116000    247.13213    -166.6991   -134.53115    -166.6991            0    7784.0518    18.067118     22.69783    19.238101  -0.28271012   -7.0226211  -0.11895965    7889.2445    6841.0303    8958.1593    7552.9658    2828.1709     167.3024    2249.6584 
  116500    244.87289   -164.98448   -133.11061   -164.98448            0    5997.7339    18.121691    22.651148    19.440597 -0.069679193   -7.1321017   0.34185809    7979.9199     6393.565    4742.3562    6857.2804   -658.41751    1114.7956   -2334.7574 
  117000    249.90205   -167.84393   -135.31543   -167.84393            0    5921.7545    18.138412    22.500139    19.512524  0.053178935   -7.1491826   0.43682171    7963.3887    3836.3409    8020.2789    5908.6436    85.057991    809.18208   -5709.5934 
  117500    239.22772    -166.0426   -134.90353    -166.0426            0    5705.2059     18.13527    22.380103     19.46126 0.0054755077   -7.0403383  0.076503095    7898.7261    4222.0837    5000.5438    7892.9901   -963.23088   -2255.4301    3261.6964 
  118000    240.07124   -166.70239   -135.45353   -166.70239            0    4694.4261    18.183799    22.496771    19.473325 -0.029614526   -6.9200299  -0.30923262    7966.0848    8108.7573     4397.393     1577.128    1547.0235    122.79474    2149.5376 
  118500    241.19853   -164.93113   -133.53554   -164.93113            0    5455.9723     18.16379    22.558886    19.430397  0.055110855   -6.7394351   -0.2794009    7961.6994    2613.0106    5950.6854     7804.221   -741.57211    156.24189    2041.2386 
  119000    247.81299   -166.57822   -134.32165   -166.57822            0     4471.729    18.119918    22.636687     19.30402   0.17684745   -6.6197941  0.069424055    7918.0249      2900.36    4559.4252    5955.4017   -1889.9393    808.47797   -1974.9186 
  119500    240.05549   -164.27828   -133.03147   -164.27828            0    3423.9004     18.08158    22.806221    19.391725    0.1449165   -6.6204641   0.32450627    7996.6141    1944.1563    5971.0348      2356.51   -410.05145   -1634.8076   -705.92088 
  120000    247.66139   -165.84103   -133.60419   -165.84103            0    4452.1242    17.990243    22.677067    19.466083 -0.093147855   -6.7751585   0.24734128    7941.4991    5491.3524    4579.5524    3285.4679   -759.34287    496.65438   -3377.7877 
  120500    243.81548   -165.60693    -133.8707   -165.60693            0    7097.1929    17.978585    22.620246    19.483479  -0.32440647   -6.9839393  0.019400723    7923.5417    11002.828    5104.1604    5184.5903    1979.2177   -709.72689    801.85477 
  121000      249.365   -166.64538   -134.18679   -166.64538            0    4564.3521    18.156919    22.568118    19.477892  -0.19563447   -7.1722405 -0.076319252    7981.4068    3087.6122    5141.2661    5464.1779    3.9276496   -756.81595    1752.2387 
  121500    237.43241   -164.86694   -133.96156   -164.86694            0    3847.6933    18.230379    22.463996    19.341122   0.15676527   -7.2362061  0.021720249    7920.7148    1091.8767    3006.8913    7444.3118    255.65352   -576.04136      790.907 
  122000    245.36356   -164.44994    -132.5122   -164.44994            0    7048.9663     18.19049     22.63703    19.363857   0.34751692   -7.1802434  0.095980523    7973.6233     8497.228    6711.9864    5937.6845   -1544.2314    1054.0146   -3309.6489 
  122500    249.66682   -163.59041   -131.09254   -163.59041            0    5445.6673    18.043812    22.798369    19.349104   0.29379085   -6.9223108   0.02525385    7959.6314    7514.7734    5044.1744     3778.054   -2080.5168   -349.54258    1918.4723 
  123000    253.19048   -166.16855   -133.21202   -166.16855            0    5986.0047    17.901671    22.816424     19.31212 -0.062914189   -6.6021857 -0.081739254    7888.0766    4504.9052    7177.9793    6275.1297    1041.8535    1469.7443   -996.81478 
  123500    244.98185   -165.64247   -133.75442   -165.64247            0    7706.2667    18.002742     22.99415    19.357119  -0.44254473   -6.4342117 -0.086666348    8013.0293    8516.3132    5991.6106    8610.8764     3431.081    847.35805    512.59225 
  124000    252.28319   -165.69913    -132.8607   -165.69913            0     3919.652    18.035408    22.818389    19.213179  -0.48998005   -6.3245502   0.10593294    7906.9715    4152.4377    3899.6797    3706.8385   -773.46204   -1447.6527    56.693428 
  124500    242.43408   -164.02576   -132.46934   -164.02576            0    5972.6529    18.105455    22.664745    19.332673  -0.20631139   -6.4350368   0.31665847    7933.2691    8083.0238    5643.7745    4191.1605    651.69069   -703.06803    805.50132 
  125000    254.82211    -165.1573   -131.98839    -165.1573            0    4155.3411    18.093375    22.690201    19.455458   0.12469185   -6.6084981   0.31955616    7987.2887    5936.1734    2875.0076    3654.8423    2432.7094   -1166.9937   -3862.8815 
  125500    240.79097   -163.66027   -132.31772   -163.66027            0    3287.6545    18.049264    22.617304     19.41696   0.19295987   -6.7958465   0.11464351    7926.5016    4008.7355    3552.3337    2301.8943   -4318.7125   -1743.4498    1272.9273 
  126000    246.59397   -165.24911   -133.15121   -165.24911            0    2816.6616    18.055309     22.72479    19.379295  0.081852995   -6.9434986 -0.052366686    7951.3853    3687.2967    1510.4105    3252.2777    2642.0878    1500.3619    1321.0448 
  126500    228.92627   -165.61876   -135.82058   -165.61876            0    2705.6955    18.115342     22.76411    19.316669 -0.071365868   -7.0247283 -0.056771676     7965.801     3954.989    1180.0261    2982.0716   -154.16126   -148.99178    1337.4225 
  127000    237.40747   -164.31748   -133.41534   -164.31748            0    5632.8068    18.150709     22.57076    19.286804  -0.12577203   -7.0591138  0.013890388    7901.3274    7646.9038    4107.9089    5143.6077    1179.2748    1057.0266   -967.95352 
  127500    246.34665   -165.75911   -133.69341   -165.75911            0    4226.0064    18.222588    22.654988    19.459942 -0.084373875   -6.9731658   0.16889792    8033.6969    2375.4851    5930.4439    4372.0902     1180.137    31.840402    1754.9235 
  128000    241.61514   -165.14967   -133.69984   -165.14967            0     5341.043    18.040512    22.534377    19.387591 -0.021146386    -6.693178  0.099356267    7881.6701    6761.8663    5300.5268    3960.7361    1081.6175     890.0858   -3465.8596 
  128500    242.64755    -165.1269   -133.54269    -165.1269            0     1469.482    18.062315    22.810015    19.412105 -0.029733991   -6.4466817  -0.11510013      7997.82    908.18927    1265.7274    2234.5295    3385.9117   -1044.2823    336.57154 
  129000    255.43705   -165.11718   -131.86823   -165.11718            0    6676.6071    18.011335    22.856994    19.284557  0.077404199   -6.2841472  -0.25125783    7939.1625    4755.4992    5875.2316    9399.0904    1016.3714    -2957.934    2692.7429 
  129500    244.47955   -164.23481   -132.41214   -164.23481            0    5136.5027    18.124616    22.666995    19.288447    0.2222223   -6.3975904  -0.20991272    7924.2841    4599.8469    4856.9476    5952.7138   -140.14428   -657.03997   -2400.0446 
  130000    248.69608   -167.14018   -134.76866   -167.14018            0    1590.3168    18.260156    22.611137     19.47548    0.2539237   -6.6685038 -0.043917608    8041.0927    4254.1697    2173.1461   -1656.3654    405.06785   -1355.4975    1902.9683 
  130500    253.03858   -165.76393   -132.82717   -165.76393            0    8065.9133    18.094748    22.359986    19.417858   0.17489888   -6.9208929   0.12137316    7856.4325    5200.3624     9015.757    9981.6206   -2036.3295   -505.16977     1948.603 
  131000    235.39861   -165.71882   -135.07817   -165.71882            0    7389.8016    18.174515    22.607013    19.482063 -0.058328936   -7.1115712   0.11964838    8004.6241    5352.1674    9484.5858    7332.6516   -96.740748    2172.6112   -352.71114 
  131500    233.49233   -165.57376   -135.18123   -165.57376            0    9780.3253    18.090599    22.629601    19.264886  -0.19295814   -7.1304373   0.10658015    7886.7177      8499.25       8572.4    12269.326    -1100.262    288.27842    1302.6552 
  132000    242.76683    -165.8948   -134.29506    -165.8948            0    6143.5683    18.149437    22.756575    19.275379  -0.18432075   -7.0779851   0.11267156    7961.0981    3143.2001     5420.028    9867.4768     927.2613    429.62386   -978.55375 
  132500    265.91576   -167.29312    -132.6802   -167.29312            0    2997.8623    18.091209    22.752939    19.358186 -0.053372704   -7.0040438  0.072775068    7968.3752    4313.9841    3142.1652    1537.4377    1583.9423    1248.4556    430.42764 
  133000    255.37858   -164.75363   -131.51228   -164.75363            0    6617.6469    18.077681    22.614514    19.443799   0.17113889   -6.9572916 -0.0044413287    7948.9743    4671.1963    7684.4268    7497.3178   -1025.1865   -294.52499   -1407.8783 
  133500    243.83064   -164.13779   -132.39958   -164.13779            0    2877.9312    18.081667    22.510621    19.490594   0.25900386   -6.8994774  -0.10662692     7933.248    2297.3277    4558.7757    1777.6903    -914.2555     1123.349   -315.93697 
  134000    234.50677   -166.57611   -136.05155   -166.57611            0    315.60935    18.170166    22.507629    19.419242  0.056096398   -6.8751345  -0.27059549    7941.8357   -3197.6108    3371.0094    773.42947   -379.76348   -1572.7528   -245.74807 
  134500    246.26171   -166.62593   -134.57128   -166.62593            0    6450.6818     18.16891    22.701716    19.245515  -0.32548723   -6.8207403  -0.27479342    7938.1101    8681.7244    6475.7701    4194.5508    1764.1094    1239.2229    635.94307 
  135000    237.30611   -166.22111   -135.33217   -166.22111            0    4093.8553    18.120602    22.915333    19.245307  -0.46458956   -6.7469103   0.14115135    7991.4138    1516.9653    5049.8509    5714.7495     2018.408    737.90937    216.55052 
  135500    252.20394   -166.72872    -133.9006   -166.72872            0    3918.3455    17.871862       22.872    19.314861  -0.28295985   -6.6302362   0.54092199    7895.2434    3607.3065    1868.2607    6279.4693   -1820.9698   -1912.5952   -4675.2237 
  136000    249.84015   -165.98594   -133.46551   -165.98594            0     6091.954    17.955665    22.793046    19.430807  -0.15894739   -6.7524322   0.40267834    7952.3355    4550.2543    8012.0347    5713.5729   -1101.3084    2013.5269    1637.5113 
  136500    241.45765    -164.3159   -132.88658    -164.3159            0    3566.9197    18.141741    22.655653    19.430985 -0.078980413   -6.8552748 0.0060274379    7986.3874    3878.5554      3977.99    2844.2139   -807.45791   -549.51853    1017.7374 
  137000    247.76168   -165.86536   -133.61547   -165.86536            0     5109.137    18.173159    22.442304    19.357182  0.064507963   -6.9108948  -0.22297531    7894.7795    4812.3419    8177.0839    2337.9854    -3017.338    1336.6089    195.50426 
  137500    253.89906   -165.19543   -132.14667   -165.19543            0    7383.3128    18.238763    22.478146    19.461491   0.18835179    -6.996462  -0.21937332    7978.6969    6632.8543    9372.2291    6144.8549    2053.5903    565.78425    331.63773 
  138000    241.58239   -164.96969   -133.52412   -164.96969            0    5552.7342     18.14583    22.523443    19.444186   0.17879393   -7.0411948 -0.019764049    7946.9665    6223.6026    7255.2359    3179.3641   -2805.4622    173.58024     1987.763 
  138500    244.16657   -166.03468   -134.25275   -166.03468            0    9525.3488    18.126192    22.662511    19.394117  0.020195327   -7.0477706   0.17540488    7966.8131     8064.067    10277.833    10234.147   -810.77836    2142.3926   -3727.3609 
  139000    238.43467   -166.96834    -135.9325   -166.96834            0    5032.4046    18.040714    22.777972    19.183792   -0.2156771   -6.9604022   0.28021746    7883.2125     2958.743    6785.0089     5353.462    1463.3548    -1607.193   -1264.3112 
  139500    235.80127   -165.70582   -135.01276   -165.70582            0    3734.8892    18.027575    23.033268    19.162262   -0.4587591   -6.8783821   0.30784859    7956.8221    4680.8997    1589.4367    4934.3312    1622.2676    1317.0699    1228.8726 
  140000       256.51   -166.28764   -132.89903   -166.28764            0    5338.3819    17.986201    22.927967    19.361173  -0.43320138   -6.6991111   0.24933936    7984.2965    1054.3222    6875.0566    8085.7668    3514.0207    -203.4485   -1076.4792 
  140500    254.52383   -165.16194   -132.03185   -165.16194            0    6281.0091    17.922668    22.582764    19.448206 -0.015499998   -6.5068682   0.13149715    7871.5329    4341.2053    6833.7099     7668.112    501.11021    357.30384       1003.3 
  141000    245.05111   -165.77379   -133.87672   -165.77379            0    3453.0123    18.189381    22.488705    19.652542   0.25103301   -6.5376871 -0.067294574     8038.983    3134.0386    3262.4819    3962.5164    846.25174    1187.7008   -864.69157 
  141500     245.3746   -165.87434   -133.93516   -165.87434            0    6160.2094    18.162844    22.274645    19.398247   0.30263926   -6.6442737   -0.1961773    7847.9663    7300.4458    6099.5457    5080.6367   -213.07403   -2182.4101   -363.51866 
  142000    238.27191   -165.92183   -134.90717   -165.92183            0    3771.6096    18.241952    22.519147    19.402161   0.20641429   -6.8978448  -0.18404142     7970.276    3863.4143    4789.4163    2661.9981    302.97266    1312.6677   -366.43285 
  142500    250.13795    -165.3678    -132.8086    -165.3678            0    5967.6821    18.147311    22.729897    19.350535   0.12171951   -7.0650462 -0.059788271    7981.8347    2794.9453    6343.0507    8765.0502   -586.64567   -934.28593     2526.115 
  143000    245.63292   -164.80959   -132.83679   -164.80959            0    5789.0662    18.014012    22.833774    19.290694 -0.032935308   -7.0937378   0.10815491    7934.8006    5760.2079    3867.9633    7739.0274    33.300605   -1565.2548   -1465.2397 
  143500    251.08581   -166.39215   -133.70957   -166.39215            0    3718.6388    17.990977      22.8492    19.359025  -0.26461551    -7.053771   0.17916317    7958.0972    7369.8664    1669.1675    2116.8826    1549.8741   -2591.2025   -819.67274 
  144000    247.17973   -165.70254    -133.5284   -165.70254            0    6637.4569    17.995741    22.702724    19.390905  -0.33254846   -6.9320764   0.13914577    7922.1996      8445.75    7697.8804    3768.7403   -86.895122    563.21311    1727.2769 
  144500    251.92103   -166.55871   -133.76742   -166.55871            0    5011.3714     18.13561    22.594747    19.461551  -0.14720257   -6.7406353   0.06098253    7974.7502    3447.7912    5372.2919    6214.0312   -495.14352   -622.06244   -3212.9541 
  145000    249.56189   -164.70117   -132.21695   -164.70117            0    7382.6496    18.204788    22.469469    19.377195   0.21198649   -6.6018519 -0.041215213    7926.2787    8425.0691    6799.6259     6923.254    -1491.349    1656.6057    2870.7099 
  145500    249.75596    -165.0989   -132.58943    -165.0989            0    6870.9285    18.220574    22.556254    19.361072   0.42651167   -6.5463059  -0.15477925     7957.166    4491.9479    6234.5932    9886.2444   -4799.0627     5.483331   -1711.7568 
  146000    244.93663    -166.2639   -134.38173    -166.2639            0    4528.1365    18.072438    22.607737    19.409494   0.33438804   -6.5946185  -0.22596467    7930.2717     3537.805    4691.7473    5354.8572   -3124.6977    -2448.944    1274.5807 
  146500    246.03015   -166.75189   -134.72738   -166.75189            0    6558.1907    17.953068    22.742081    19.424589 -0.086206583   -6.7919952  -0.15955316    7930.8677    8428.1386    6121.0861    5125.3474     1492.704   -297.36276    3917.1278 
[...]
  365000    247.74481   -166.04319    -133.7955   -166.04319            0    4121.2402    18.197335    22.434001    19.577758 -0.0091828096   -6.9859757   0.13831561    7992.4049    5349.9139    4461.9583    2551.8483   -959.63423    460.35056   -147.07594 
  365500    248.94756   -166.12661   -133.72236   -166.12661            0    8525.1533    18.140627    22.710697    19.220061  -0.21024625   -7.0486678  -0.15038919    7918.4015    6961.9929    7660.3324    10953.135   -364.63794    564.46654    3494.9465 
  366000    249.79533   -165.12091   -132.60631   -165.12091            0    6485.5991    18.028616    23.006831    19.112772  -0.10738898   -7.0690533  -0.28536335    7927.6207    10173.264    4273.0992     5010.434    2916.6661   -181.97767    1460.4646 
  366500    246.90436   -165.92014   -133.78184   -165.92014            0    2371.4776    18.040562    23.088241    19.285911   0.15030804   -7.0445928  -0.11670053    8033.0611    555.44269    2082.5896    4476.4005    467.46461    -3014.041    308.81797 
  367000    243.82906   -165.46852   -133.73052   -165.46852            0    7901.1204    17.965654    22.770668    19.224009   0.23464799   -6.9328695  0.072430536    7864.3486    5785.5858    9846.6238    8071.1516   -115.75369    47.192056    -3732.961 
  367500    232.92089   -163.84079   -133.52265   -163.84079            0    4536.6861    18.178773    22.684777    19.375195   0.19700221   -6.9425804   0.11432257    7989.9699    5707.4212    5985.7822     1916.855   -3548.0985    986.29817    512.56243 
  368000    250.90646   -165.45707   -132.79784   -165.45707            0    9184.4975    18.176005    22.469312    19.372141 -0.017967269   -6.9265402 -0.033860396    7911.6277    5247.4457    13444.538    8861.5092    789.17334    3118.7177    728.73635 
  368500    250.27426   -166.52134    -133.9444   -166.52134            0    5987.9705    18.203646    22.423007    19.455837  -0.16739242   -6.9418566  -0.10272515    7941.4925    3311.3081    6496.1955    8156.4079    728.91838   -268.32751    2001.9943 
  369000    247.61205   -165.88421    -133.6538   -165.88421            0    4596.4493    18.168252    22.532412    19.448842  -0.11255287   -6.9488827  0.013817342    7961.8608    7120.4448    2880.8672     3788.036    310.18104   -1788.3899    2482.0162 
  369500    248.70615   -165.66488   -133.29206   -165.66488            0    3984.0165    18.070611    22.823882    19.241629 -0.0047960633   -6.9027427   0.17019765    7936.0462    4056.8658    3925.8273    3969.3564    2712.8863    -336.8329    525.07738 
  370000    252.06616   -164.71144   -131.90126   -164.71144            0    1168.9853    18.042857    23.120767    19.173738   0.12040724   -6.9227648   0.23833226    7998.6068    748.18412    608.55508    2150.2166   -648.74668     328.9293   -1536.5046 
  370500    237.55203   -164.75731   -133.83636   -164.75731            0    5110.9465    17.879151     22.97803     19.16628  0.030016875     -6.95393  0.014949781    7874.0386    5351.5574    3015.6307    6965.6515    1095.9575     453.9466   -811.80937 
  371000    232.74383   -164.71956   -134.42447   -164.71956            0    5399.8844    18.012927    22.782395    19.429205  -0.12528322   -7.0935336   -0.2125936    7973.3107      4606.92    4391.0857    7201.6474    420.52246    611.13095    2329.4934 
  371500    244.77599   -166.53808   -134.67682   -166.53808            0     8742.833    18.228236    22.308097    19.526137  -0.11087277   -7.2077995  -0.18504823    7940.0549    6046.8444    10093.196    10088.459   -1273.1011     2139.297   -2977.3291 
  372000    243.12396   -165.82864   -134.18242   -165.82864            0    6391.2104    18.359999    22.123018    19.462261 -0.025106369   -7.1870847  0.056207167    7905.1535    3812.6184    10336.668    5024.3447   -536.51885    -508.6289     1152.372 
  372500    240.80662   -166.12094   -134.77635   -166.12094            0    5200.0169    18.410428    22.424918    19.442059   0.08439835    -7.091446   0.24270322    8026.6998    6131.1124    4340.0076    5128.9308    1194.9444    944.85347    1681.8766 
  373000    233.03247   -167.35587   -137.02321   -167.35587            0    10106.396     18.05785    22.557772    19.268296  0.033589396   -6.8255962   0.15349155    7848.8413    10288.518    10448.067    9582.6019    445.97136    912.74824    4441.1683 
  373500    235.71246   -166.29902   -135.61752   -166.29902            0    4696.5724    17.906952    22.909428     19.35797 -0.093466117   -6.6872246 -0.023604026    7941.3756    7269.3277    1676.4525     5143.937    2163.6893    1115.2057    357.91288 
  374000    247.09371   -165.03499   -132.87205   -165.03499            0    3630.9414    17.945613    22.978553    19.246187  -0.12634844   -6.7045874  -0.15946278    7936.4392    3647.5774    3167.5438    4077.7032    223.00056   -1327.9221    -656.5102 
  374500    245.58602    -163.6857     -131.719    -163.6857            0    2833.7224    18.107526    22.880806    19.140169 -0.023047007   -6.8277569 -0.088675237    7930.0547    -621.1082     4321.811    4800.4645   -2469.9091    358.69574    36.449935 
  375000     253.1677    -164.6275   -131.67394    -164.6275            0    2334.2136    18.207616    22.759085    19.265666   0.06939467   -6.9796846    0.1109745     7983.474    3397.8521    1209.1572    2395.6316   -1767.1301   -1126.9167   -1099.7843 
  375500    242.38229   -165.14914   -133.59946   -165.14914            0    5289.3682    18.007824    22.545136    19.519783   0.07212432   -7.0273786   0.21586611    7924.8144    5153.5921    6004.5706    4709.9418   -1885.5281    1628.6978   -2967.3408 
  376000    247.77828   -165.73074   -133.47869   -165.73074            0    2355.7593    18.041941    22.525377     19.63989  -0.12209985   -7.1055071  0.096575542     7981.681    2868.2751    3289.4972    909.50547    576.59443   -2080.0419    2769.6246 
  376500    258.37239   -165.59148   -131.96044   -165.59148            0    3583.7053    18.091658     22.54408    19.414414    -0.262913   -7.1158949 -0.061042764    7918.3589    4748.8004     5206.724    795.59166   -72.515638     2612.178    2059.5839 
  377000    237.46196   -166.35295   -135.44373   -166.35295            0    3772.2091    18.321137    22.699689     19.30128  -0.19051807   -7.1117285  -0.08024145    8027.0958    2794.3398    3355.0986    5167.1888    227.26763   -1112.5114    1376.8323 
  377500    246.60914   -166.38476   -134.28489   -166.38476            0    5445.1583    18.181819    22.605312    19.144838  0.038613617   -6.9811624  0.026880161    7868.6375     5492.568    4835.0102    6007.8969    776.56871    2644.5495   -2127.0517 
  378000     239.0579   -164.90434   -133.78738   -164.90434            0    1469.1384    18.025113     22.82994    19.448771   0.16128983   -6.8186538  0.094919494    8003.4077    3146.9842   -2081.1335    3341.5645     222.1767   -3188.5843   -1745.4688 
  378500    247.31854   -167.26467   -135.07246   -167.26467            0    8238.0133    17.806399    22.753806     19.55777   0.11615382   -6.6550505  0.020115875    7924.0915    8762.3974    7889.4631    8062.1794    -1455.168    627.11035     403.5091 
  379000    249.55977   -166.13777   -133.65384   -166.13777            0    4464.0577    17.964466     22.70919    19.448728 -0.034096619   -6.6783813 -0.070590656    7934.2735    6606.6026    3458.2518    3327.3187   -3975.2832    1150.6824   -949.34519 
  379500    239.79683   -165.37842   -134.16527   -165.37842            0    2689.2047    18.371812    22.720093    19.155816  -0.17116582   -6.8612884 -0.012268624    7995.8153   -62.777276    3559.9647    4570.4267    169.18258   -1303.0066    191.66138 
  380000     247.3045   -166.61456   -134.42418   -166.61456            0    8531.7703    18.298523    22.502226    19.126248  -0.19336446   -6.9133061   0.16767582    7875.3759    7068.6857    8632.6975    9893.9277    1658.6908    1728.1952   -770.43552 
  380500    235.97083   -166.30102   -135.58588   -166.30102            0    8567.1367    18.108958    22.587867    19.457168   -0.1169893   -6.9705721   0.22065239    7958.8133    8013.8916    9725.3728    7962.1456   -1516.0758    -673.0002   -1060.4681 
  381000    243.62076   -166.38692   -134.67604   -166.38692            0    5834.2318    17.942435    22.664717    19.512087 -0.088337221   -6.9803882   0.16922926    7934.7893    4543.6422    5981.8183    6977.2348    1339.6172    558.98943   -2520.6306 
  381500    263.56506   -165.44515   -131.13821   -165.44515            0    6448.2087    18.050817    22.767513    19.350195   -0.1050607   -7.0141806   0.02670094    7952.3925    3925.5491    8132.8274    7286.2495    1373.8276    1818.1878   -24.665444 
  382000    247.63646   -165.55854   -133.32495   -165.55854            0    4528.4904    18.233999    22.825625    19.167429 -0.074340739   -7.0216588 -0.083517599    7977.5306    915.17068    4545.2438    8125.0567    602.48508   -645.47644    3777.2113 
  382500    256.11568   -164.45994   -131.12265   -164.45994            0    5606.9836    18.167423    22.764662    19.184308 -0.037947767   -6.9619787 -0.035514262    7934.1551    2230.7092    5208.2086    9382.0329   -1675.1123    707.59059   -3362.7574 
  383000    249.12886   -164.66238   -132.23453   -164.66238            0    3253.6767     18.08994    22.636659    19.482058  0.038971055   -6.8419342   0.10183964    7977.8208    2726.4464    3558.7686    3475.8152   -2798.9629    -1423.261   -3108.3827 
  383500     262.9624   -164.86608   -130.63759   -164.86608            0    7089.8531    17.999642    22.393891     19.66095   0.10765067   -6.7287912   0.23059407    7924.9756    9248.4395    8702.2644    3318.8555   -236.19174    2519.2402   -1698.3738 
  384000    240.05409   -165.14878   -133.90215   -165.14878            0    1576.3504    18.280426    22.355728    19.583441 0.0053380118   -6.8391694   0.19349143    8003.2084    966.44859    3693.8398     68.76283    1724.1595   -1428.9911    1590.9384 
  384500    247.01926   -165.81693   -133.66368   -165.81693            0    6586.2546    18.488585    22.334902    19.142024  -0.23100907   -6.9348257 -0.067494895    7904.5213    5555.1129     7095.259    7108.3921    1162.9325    767.54761    1659.8691 
  385000    242.31437   -167.13557   -135.59473   -167.13557            0    4712.2773     18.28853    22.597375    19.175685  -0.28003919   -6.9276177  -0.18589553    7924.7884     2935.894    4714.0067    6486.9312    1575.4365    -463.6182   -2057.1483 
  385500    237.27587   -166.66602   -135.78101   -166.66602            0    3753.0469    17.976266    22.870205    19.456973  -0.10535472   -6.8802202  -0.06877242    7999.1684    5983.4549    5338.2668   -62.581214    635.59596    970.88863    2510.1278 
  386000    247.75987   -165.87484   -133.62519   -165.87484            0    5131.3365    17.917243    22.799418    19.399039  0.047227216   -6.8486145  0.072919768    7924.5596    7371.9809    1979.6208    6042.4077    725.13275   -1733.0896    3310.4318 
  386500    246.82974   -164.54553   -132.41695   -164.54553            0    7471.5645    18.078995    22.786054    19.372291  0.050933259   -6.9345074   0.10452643    7980.3952    8878.7025    7939.7583    5596.2326   -2468.1413   -1647.7312    131.90139 
  387000    232.10304    -164.2412   -134.02952    -164.2412            0    4810.1362    18.165728    22.640776    19.290679 -0.072529439   -7.0185379  0.025453454    7933.9897    8306.8502     3288.747    2834.8113    1867.9132   -893.97213   -1430.4682 
  387500    244.75399   -166.02089   -134.16249   -166.02089            0    6363.7125    18.170015    22.514064    19.407842  -0.18704904   -7.0575998 -0.086435321    7939.3773    3379.7446    7710.2147    8001.1782    562.04415   -223.83363     -661.019 
  388000    235.73497   -167.12436   -136.43992   -167.12436            0    4401.5025    18.080143     22.52495    19.613317  -0.10832239   -6.9893593 -0.0054195909    7987.6076    4944.2662    3579.4089    4680.8323    712.49911   -462.73612   -2296.4932 
  388500     237.6584   -166.27824   -135.34344   -166.27824            0    7869.5727    17.965329    22.480607    19.443941  0.097843728   -6.8672071    0.1425417    7852.8539    9600.0778    8300.0966    5708.5437   -1590.7779   -1026.8811   -2832.4585 
  389000    238.20436   -166.52831   -135.52244   -166.52831            0    4004.1004    18.222243    22.762268    19.358984   0.22636299   -6.8851661   0.14199287    8029.7115    4566.6843    3843.9512    3601.6657    2883.4373    12.388146   -1482.0923 
  389500    247.62005   -167.41474   -135.18329   -167.41474            0    7246.9481    18.132541    22.738546    19.057959   0.13961993   -6.8543039 -0.056153508    7857.7418    6831.5129    8619.8283    6289.5029   -2671.5396    1129.4996   -1115.9209 
  390000    239.85535   -167.55855   -136.33778   -167.55855            0    4688.2492    18.084012    22.850694    19.288402 -0.087703291    -6.864708  -0.21763359     7970.589    160.75731    8875.4934     5028.497   -555.76394   -2164.2801    3269.3783 
  390500    246.22764   -165.64096   -133.59074   -165.64096            0     8147.835    17.960419     22.72834    19.460252  -0.16787872   -6.9067459  -0.20587549    7943.8793    8685.1621    7742.2375    8016.1054   -242.92431    250.62284    2757.2144 
  391000    249.08007   -164.61146   -132.18996   -164.61146            0    8301.9009     18.10018    22.566327    19.508581  -0.05242582   -7.0374387  0.091501083    7968.3694    10568.999    8016.2052     6320.499   -2516.2677   -2369.4636   -2283.4828 
  391500    249.23579   -163.26985   -130.82808   -163.26985            0    9020.1129    18.186931    22.497815    19.369124  0.072658798   -7.1048118   0.31699029    7925.1911    6293.7606    12547.844    8218.7344    1979.1875    3121.1408   -2966.0069 
  392000    230.75199   -166.44879   -136.41297   -166.44879            0    5505.8782     18.34775    22.563935    19.364908 -0.0015485065   -7.0590358   0.16428234    8017.0221    4224.3134    5404.0616    6889.2597   -114.91665   -516.05095    1982.0916 
  392500    237.37337   -166.28588   -135.38818   -166.28588            0    3705.4976    18.029524    22.558523    19.293325  -0.16299608   -6.7930715  -0.21113223    7846.9703    2241.9283    5304.1167    3570.4477    533.14698    14.934915    488.98178 
  393000    242.11579   -164.74377   -133.22878   -164.74377            0    6192.7866    17.958564    22.859276    19.494361  -0.17219705   -6.6667029  -0.29044937    8002.8206    7890.5446    5553.6797    5134.1355   -2148.5923   -316.70564   -1151.8234 
  393500    260.27997   -164.28007   -130.40074   -164.28007            0    7745.5158    17.980324    22.851685    19.415963 -0.012696304   -6.6850113  -0.15384723    7977.6446    7975.6184    7780.5721     7480.357    585.03932   -1089.4724    426.34986 
  394000    242.21284   -165.99612    -134.4685   -165.99612            0     3998.159    18.098941    22.701912    19.277363  0.090876797   -6.8461951  0.042149576    7920.6943    2334.1756     4764.792    4895.5094    2465.2999    3238.4699    1386.1711 
  394500    239.82371   -166.33813   -135.12149   -166.33813            0    6065.2989     18.21654    22.631642    19.324359   0.11830222   -6.9985228   0.14891564    7966.8573    8397.6301    5786.2404    4012.0261   -2193.2062   -439.70149    4117.6249 
  395000     246.2157   -165.68996    -133.6413   -165.68996            0    5775.4276    18.115378    22.595209    19.355182  0.011201816   -7.0245548   0.11526102    7922.4774    6296.4362     5112.971    5916.8756    214.78814   -751.18991   -360.47068 
  395500    245.84425    -167.4042   -135.40389    -167.4042            0    4160.9365    18.058578    22.701863    19.374701  -0.13844476   -7.0296526  0.018010171    7942.9177    4836.3654    4908.7458    2737.6982    2259.0096   -1785.5555    1900.4308 
  396000    233.38295   -166.20772   -135.82944   -166.20772            0    8706.1956    17.976653    22.677382     19.36555  -0.11266708   -6.9952094 -0.022179648    7894.6265    9239.5875    8466.9062     8412.093    3100.5981    2930.3754   -4448.6813 
  396500    238.47595   -167.26256   -136.22135   -167.26256            0    946.73113    18.117833     22.77492    19.401555  0.068714438   -6.9427441 -0.064158536    8005.7063    902.41747    1050.2638    887.51208   -2263.5569   -2725.6616   -331.83188 
  397000    249.98668   -166.46516   -133.92566   -166.46516            0    8395.1072    18.183181    22.535379    19.249523   0.30789715   -6.8336762 -0.042486235    7887.7782    7025.4528    7942.1845    10217.684   -2636.4912   -413.63602   -82.708531 
  397500    239.62332   -165.00805   -133.81749   -165.00805            0    4226.5028    18.154999    22.522316    19.331655   0.34151336   -6.7811127  0.011883235     7904.571    2950.4406    5353.4142    4375.6537   -12.695093    1760.5671    473.30758 
  398000    249.77153   -166.92408   -134.41257   -166.92408            0    4811.2804    18.131028    22.775715    19.527493   0.07918356   -6.7809198   0.01715079     8063.822    9464.1402    3361.9108    1607.7903   -1990.2977   -1954.7749    694.71847 
  398500    250.78583   -165.05731   -132.41378   -165.05731            0    8029.3232    17.956194    22.560544    19.332987  -0.26279969   -6.7909312 0.0010578059    7831.8219    8398.1765    8934.7404    6755.0526    796.95964    -116.1479     549.0478 
  399000    228.80159   -167.67783   -137.89587   -167.67783            0    4688.2339      18.1352    22.816261    19.428194  -0.33348814   -6.9345113   0.07133089    8038.9486    8126.6696    5357.9862    580.04577      1589.71   -447.26252    -1649.952 
  399500    241.08215   -165.43454   -134.05409   -165.43454            0     10413.87    18.056965    22.670459     19.27759   -0.1471092   -6.9137102   0.14890508    7891.4681    7947.8964    11751.864    11541.849     1398.779    1803.4496    289.82122 
  400000    233.65526   -166.86309   -136.44936   -166.86309            0     8793.987    18.111164    22.657964    19.325775  0.033961008   -6.8874807   0.14750423     7930.566    7286.4265    8968.8312    10126.703   -1018.7921   -184.01464   -2932.8494 
Loop time of 2556.21 on 1 procs for 400000 steps with 1008 atoms

Performance: 6.760 ns/day, 3.550 hours/ns, 156.482 timesteps/s
71.3% CPU use with 1 MPI tasks x 1 OpenMP threads

MPI task timing breakdown:
Section |  min time  |  avg time  |  max time  |%varavg| %total
---------------------------------------------------------------
Pair    | 2190.8     | 2190.8     | 2190.8     |   0.0 | 85.70
Bond    | 0.054859   | 0.054859   | 0.054859   |   0.0 |  0.00
Neigh   | 332.93     | 332.93     | 332.93     |   0.0 | 13.02
Comm    | 11.442     | 11.442     | 11.442     |   0.0 |  0.45
Output  | 2.015      | 2.015      | 2.015      |   0.0 |  0.08
Modify  | 17.376     | 17.376     | 17.376     |   0.0 |  0.68
Other   |            | 1.602      |            |       |  0.06

Nlocal:        1008.00 ave        1008 max        1008 min
Histogram: 1 0 0 0 0 0 0 0 0 0
Nghost:        5080.00 ave        5080 max        5080 min
Histogram: 1 0 0 0 0 0 0 0 0 0
Neighs:         0.00000 ave           0 max           0 min
Histogram: 1 0 0 0 0 0 0 0 0 0
FullNghs:      271074.0 ave      271074 max      271074 min
Histogram: 1 0 0 0 0 0 0 0 0 0

Total # of neighbors = 271074
Ave neighs/atom = 268.92262
Ave special neighs/atom = 0.0000000
Neighbor list builds = 40000
Dangerous builds not checked

unfix		3
unfix		2

write_data	data.final.${pid}
write_data	data.final.0
System init for write_data ...

write_restart   restart.lmp.${pid}
write_restart   restart.lmp.0
System init for write_restart ...
Total wall time: 0:42:40
