LAMMPS data file via write_data, version 23 Jun 2022, timestep = 22573000

2268 atoms
2 atom types

0.4960592051016057 46.95463979486439 xlo xhi
0 20.047001 ylo yhi
0 20.857 zlo zhi

Masses

1 1.008
2 15.999

Atoms # full

793 0 1 -1.1794 3.3352562666557253 1.9885117703077684 2.4284123888816085 0 4 -1
795 0 2 0.5897 3.908296283605759 1.8140602108941042 1.638966657794711 0 4 -1
794 0 2 0.5897 4.013463376233046 2.2468155175190945 3.065334700347122 0 4 -1
1019 0 2 0.5897 1.9272506131553806 0.6996070479304805 2.4696823103146364 0 1 0
1018 0 1 -1.1794 1.1821704697861208 0.11636333494029957 2.1109050986494675 0 1 0
2157 0 2 0.5897 2.303745552378916 3.4886447855336407 2.439530892876619 0 -1 -3
582 0 2 0.5897 5.983826367171649 3.0107695303981643 3.9725113717384763 0 -1 0
2156 0 2 0.5897 0.8824029312897608 3.924737765454651 2.55221047029082 0 -1 -3
209 0 2 0.5897 5.757317905919849 0.47842742416656187 0.73301275724825 1 1 2
208 0 1 -1.1794 5.664536020192206 1.3677098292791405 0.41165865968638393 1 1 2
752 0 2 0.5897 7.061300340350468 2.757298995631914 1.1450425344648993 1 1 1
751 0 1 -1.1794 7.2583374014760516 3.7118569133329724 1.1522818879311139 1 1 1
80 0 2 0.5897 8.575723141417734 0.27341858803241303 3.0597446275545916 0 4 -1
79 0 1 -1.1794 7.847340062354248 0.12782068851653344 3.687790317033099 0 4 -1
988 0 1 -1.1794 10.306972737737011 0.6836315389452888 2.2747586688608914 1 2 0
990 0 2 0.5897 10.752764335561945 1.5416969208112787 2.3374081558477555 1 2 0
262 0 1 -1.1794 11.42161699662182 3.2866377764738552 2.3749548275254915 0 -2 2
989 0 2 0.5897 10.802906732951747 0.12085612509575555 2.85179988268404 1 2 0
138 0 2 0.5897 9.771517561928396 0.3212690875494094 0.2040936130848779 0 1 0
753 0 2 0.5897 7.409304966526851 3.9728813019010136 2.0664476169291652 1 1 1
264 0 2 0.5897 10.897150390962064 3.8785683051208957 1.8335764666574428 1 -2 2
225 0 2 0.5897 11.680702610791403 0.9262664938001847 0.32127729337866484 1 -1 3
2155 0 1 -1.1794 1.7498756560790167 4.297400886982786 2.4359034423533212 0 -1 -3
1850 0 2 0.5897 5.17194550374985 6.187236969861259 0.7607462920498452 0 -3 0
1849 0 1 -1.1794 5.3400320878183205 5.431794036700549 0.15655661121079043 0 -3 0
1152 0 2 0.5897 3.2105888477122 5.5830573826617975 2.991755882401107 0 1 -3
1150 0 1 -1.1794 4.148225247927544 5.553342481638193 3.0906408418241957 0 1 -3
891 0 2 0.5897 1.732396764219439 5.578733531801977 0.6609572894047274 0 1 2
996 0 2 0.5897 5.192773078891932 7.830379131725296 1.812694062399339 1 0 1
1851 0 2 0.5897 5.903007358459899 4.817641841033822 0.588036513295783 0 -3 0
1151 0 2 0.5897 4.328086814893638 4.724529132509311 3.5582074851924195 0 1 -3
1973 0 2 0.5897 2.7288930340026876 7.571547700354611 0.9197765127337912 1 0 -1
1743 0 2 0.5897 3.929958719058194 7.127162383249725 3.9668403352804305 1 1 1
889 0 1 -1.1794 1.5835422474367733 6.440840627111228 0.18111882586470013 0 1 2
994 0 1 -1.1794 6.106227719479018 7.598856969883211 1.8578162419660307 1 0 1
570 0 2 0.5897 0.9468590175394795 7.6913371756175914 4.147367924333376 0 1 1
586 0 1 -1.1794 9.823762558709499 5.990158064691355 1.6843776943179065 0 1 -2
587 0 2 0.5897 9.21979209468993 5.851233358322588 2.390258657923614 0 1 -2
1813 0 1 -1.1794 7.4568298560358395 5.635086641724331 3.275526304707406 0 1 -1
1815 0 2 0.5897 6.806924533407197 6.337422950627128 3.1562293242841384 0 1 -1
588 0 2 0.5897 9.201790221890539 6.131603609370096 0.8888578510106359 0 1 -2
572 0 2 0.5897 10.67573595562701 7.733134452705576 3.400398549673065 0 1 0
1071 0 2 0.5897 11.329691200205744 5.673585355769511 4.168881667739608 0 0 1
141 0 2 0.5897 11.763363873686894 6.166599589098 1.150746788984839 0 0 -1
568 0 1 -1.1794 0.8565487929210849 8.351228535685864 3.4443179631361525 0 1 1
1742 0 2 0.5897 2.9665752245449717 8.05234988647699 3.3752147472170817 1 1 1
1974 0 2 0.5897 4.024431752731074 8.328462027770259 0.16535627633248381 1 0 -1
1085 0 2 0.5897 3.354836222758316 10.197845315214519 0.6081213933525026 0 -2 -3
1084 0 1 -1.1794 3.552463683828341 11.105136401719104 0.9227953584279593 0 -2 -3
1972 0 1 -1.1794 3.487497906817986 8.17031296595427 1.0264356810162747 1 0 -1
1086 0 2 0.5897 3.694305094178781 11.667338345449231 0.08953510727099123 0 -2 -3
1380 0 2 0.5897 5.372664412678404 11.785989695865693 1.2778853095550164 0 1 1
1622 0 2 0.5897 2.4072195391725772 11.067714762759678 2.52432083650064 0 2 -2
1741 0 1 -1.1794 3.5915632874305126 8.02828264309102 4.112392263643897 1 1 1
1358 0 2 0.5897 4.572465624103408 9.634442604881684 3.6360744396089792 0 2 -2
1357 0 1 -1.1794 5.031624069639888 10.35749848432485 4.074774973443959 0 2 -2
1359 0 2 0.5897 5.940583053109653 10.275808766185486 3.6779244080324904 0 2 -2
1623 0 2 0.5897 1.6645503900318281 9.989582778879395 3.380409515379172 0 2 -2
1621 0 1 -1.1794 1.6265495459788935 10.86226776501341 3.06750576044234 0 2 -2
2039 0 2 0.5897 8.377376896078989 8.091901748171855 0.13895267103194914 0 0 -2
573 0 2 0.5897 9.731607672914812 8.299510823209985 2.350271620721027 0 1 0
995 0 2 0.5897 6.573058400943115 8.358890276942027 1.4224326006725265 1 0 1
2038 0 1 -1.1794 8.494790778265852 8.83734847424738 0.7786638620380721 0 0 -2
571 0 1 -1.1794 10.195737440475611 8.545271759930285 3.1458111435763034 0 1 0
1830 0 2 0.5897 7.32418777973912 11.266649687637532 2.4162212401742997 0 0 -2
1828 0 1 -1.1794 7.773562000225105 10.568890076315423 2.933711583510557 0 0 -2
1829 0 2 0.5897 8.17035790379033 9.971985578320181 2.3194070166324448 0 0 -2
18 0 2 0.5897 11.69939135890814 9.573843743117115 3.170917481122599 0 -1 2
2040 0 2 0.5897 8.686445714248531 9.645144489827965 0.2856750349704607 0 0 -2
1230 0 2 0.5897 10.300808988588068 10.996695446188346 0.03158539568586928 1 -2 0
2144 0 2 0.5897 9.041213237662864 12.004766530492265 2.8653068896049914 0 0 0
1783 0 1 -1.1794 12.073835094403425 10.99007536287028 0.2906390522360688 0 2 0
1378 0 1 -1.1794 6.29086344609808 12.123302607225495 1.263358860716074 0 1 1
1635 0 2 0.5897 4.542781792037069 12.073322495869856 3.7929405799295863 0 -1 1
998 0 2 0.5897 3.7041964804157783 13.928827447426954 2.5511411259368786 1 -2 2
997 0 1 -1.1794 3.54445920625207 14.705182716814884 1.9217992767939145 1 -2 2
999 0 2 0.5897 4.19117573427293 14.557770906353122 1.1739803032434843 1 -2 2
1565 0 2 0.5897 1.7629816754030256 14.296560859059733 1.1263555793648492 0 -2 -1
1728 0 2 0.5897 5.942223345463663 14.18849377800199 0.3763098377655423 1 0 2
1726 0 1 -1.1794 5.43203484384685 14.996369620151999 0.2308634789837512 1 0 2
1727 0 2 0.5897 5.853383614179045 15.682648179720674 0.7077428816930353 1 0 2
1633 0 1 -1.1794 4.220429663478368 12.93848871467495 4.075543315415993 0 -1 1
108 0 2 0.5897 0.8511244756503631 12.398627015754967 4.085491153323997 0 -1 0
965 0 2 0.5897 5.673777600149836 13.91613895285347 3.879207593815895 1 -3 1
964 0 1 -1.1794 6.262683400808577 14.66616878401788 4.0900622526490915 1 -3 1
1400 0 2 0.5897 2.5973145008765375 15.425265216726014 3.6725229706045486 0 0 -1
1399 0 1 -1.1794 1.784743673640702 15.7688584389941 4.070641899821669 0 0 -1
1564 0 1 -1.1794 0.936364293297878 14.23553437655052 0.5834228707867416 0 -2 -1
1566 0 2 0.5897 0.688267068484263 13.307602278047641 0.7956628687673801 0 -2 -1
1379 0 2 0.5897 6.551350990991853 12.091279816518318 0.3546429659927063 0 1 1
2143 0 1 -1.1794 9.610091751481558 12.73984980538114 3.0699741026474228 0 0 0
2145 0 2 0.5897 9.208037168663047 13.286679680750847 3.7789082476662554 0 0 0
1823 0 2 0.5897 9.970820591216908 14.16058712295942 1.9987496734850732 0 1 -2
1822 0 1 -1.1794 9.983935981219787 15.00522483588046 1.5138862987625556 0 1 -2
1824 0 2 0.5897 10.200349250393627 15.715601186040034 2.176777512415863 0 1 -2
5 0 2 0.5897 11.62512212448193 14.64003585012708 0.8941360842428263 0 1 -2
1082 0 2 0.5897 6.727874479634042 15.94070655533548 2.832262190417962 0 -2 0
743 0 2 0.5897 8.865150391859265 14.355705904271895 0.5226188324675264 1 -1 0
441 0 2 0.5897 1.7202415976336607 16.8698889481136 2.1629287849094356 1 0 1
439 0 1 -1.1794 1.6629030432146912 17.525896666927338 1.5024387396715295 1 0 1
1020 0 2 0.5897 1.4090054368160365 19.203475469392814 2.0598684977778947 0 0 0
1611 0 2 0.5897 3.9790351056639595 19.16114733675974 1.0086790947343611 0 1 -1
731 0 2 0.5897 3.7310050308576916 19.06323007623993 3.226599646943683 1 0 0
440 0 2 0.5897 1.6516901695266413 17.10630376955144 0.6519759103534389 1 0 1
64 0 1 -1.1794 5.818866088659556 19.28136431945738 2.1198379536602627 0 -2 -1
730 0 1 -1.1794 3.2215718518245557 18.693618980692726 3.9364105697615503 1 0 0
66 0 2 0.5897 5.929392340513211 18.295101449200736 2.099602034155239 0 -2 -1
1609 0 1 -1.1794 3.4943707655786174 19.225211164502554 0.17346620660841439 0 1 -1
1610 0 2 0.5897 2.6546684760351993 18.845866407237963 0.4144935855287925 0 1 -1
65 0 2 0.5897 6.575377589549109 19.606773740771256 2.687495634127988 0 -2 -1
1081 0 1 -1.1794 6.944846908544882 16.690029225026016 2.255471790361425 0 -2 0
1083 0 2 0.5897 7.836477812182345 16.97443577903107 2.3081176934483434 0 -2 0
624 0 2 0.5897 9.481670147936251 17.45374141908493 3.014008370864816 0 0 -1
271 0 1 -1.1794 9.314391777675999 18.0491313968428 1.396406412150506 0 -2 1
273 0 2 0.5897 8.730328413167882 18.232688143830085 0.6544003827378154 0 -2 1
272 0 2 0.5897 10.018266661286777 17.79443287565018 0.8125084484571174 0 -2 1
622 0 1 -1.1794 10.018443031461072 16.848905921751253 3.658742094669963 0 0 -1
623 0 2 0.5897 10.645628007826742 17.509270794150307 4.017177184219675 0 0 -1
580 0 1 -1.1794 5.054774126905957 2.7865217848059385 4.264090716588575 0 -1 0
581 0 2 0.5897 5.2463124448413465 2.5299464508025373 5.203687832021238 0 -1 0
50 0 2 0.5897 4.917070753486995 3.084438245142668 7.344938747157793 0 0 4
1544 0 2 0.5897 2.752204218068969 3.7559650586131412 6.133834923691162 0 1 0
1543 0 1 -1.1794 2.161564547013538 3.4872936831072443 5.392723145630035 0 1 0
1545 0 2 0.5897 2.2831072425327488 2.5557980990143383 5.284928231141931 0 1 0
49 0 1 -1.1794 5.062218353600366 2.252096368683673 6.878155039756994 0 0 4
51 0 2 0.5897 5.873015197642418 1.9426096192973743 7.307885785929259 0 0 4
2149 0 1 -1.1794 2.1008147057976103 0.7867450377233906 5.357768012498397 0 1 2
2151 0 2 0.5897 2.568439924960961 0.7304305612259206 6.223139222427674 0 1 2
745 0 1 -1.1794 2.320842444456063 1.5751640640982654 8.25627415313679 1 1 0
1739 0 2 0.5897 4.166144588135927 0.406101991216221 7.6428114975149395 1 2 -1
395 0 2 0.5897 0.5607401267730214 3.1488711829930587 6.413975946185728 0 1 -2
81 0 2 0.5897 7.772735308292402 0.9753865914965967 4.202965668174057 0 4 -1
2210 0 2 0.5897 11.396772766469782 2.9697910772054077 4.471303375985739 1 1 2
2209 0 1 -1.1794 10.8453484791637 2.6573804019461322 5.218278521021466 1 2 2
2211 0 2 0.5897 11.248998043135803 3.1153727312697947 6.01877059371915 1 2 2
75 0 2 0.5897 8.120544330434708 0.9735591621604213 7.294419287204062 0 0 -1
1760 0 2 0.5897 10.147558568494514 0.9949867758295298 5.728355410515806 1 1 1
1759 0 1 -1.1794 9.729352508338959 0.2735269678826041 6.204829020247672 1 1 1
21 0 2 0.5897 8.787428727590113 2.565009395991869 5.185448697423714 1 -1 -1
19 0 1 -1.1794 7.796796909663215 2.4646020743236736 5.147639894061472 0 -1 -1
20 0 2 0.5897 7.491841506926458 3.0331853816321006 5.898620810787309 0 -1 -1
316 0 1 -1.1794 11.433983545989605 3.566234263078637 7.839567443740084 0 -1 2
73 0 1 -1.1794 7.281866650358612 0.9097767976550607 7.723037040400951 0 0 -1
1721 0 2 0.5897 1.2255654609576652 5.371509956682766 5.019693777405764 1 2 1
950 0 2 0.5897 3.3057930312433976 5.887618711768633 7.396551191076483 1 0 0
1720 0 1 -1.1794 1.0156817297466736 6.288972997524631 5.296533339993969 1 1 1
949 0 1 -1.1794 3.534123175818067 6.500859312441337 6.664263478861317 1 0 0
951 0 2 0.5897 2.688799529605057 6.567523123117018 6.148868413552567 1 0 0
1778 0 2 0.5897 5.467263884564156 6.668759103280356 5.978031331898094 0 1 0
1814 0 2 0.5897 7.522476576187293 5.629173446633005 4.214191978192696 0 1 -1
1138 0 1 -1.1794 6.966237653222432 4.2135553205343586 7.228521782667039 0 0 -1
1777 0 1 -1.1794 6.361819734116588 6.4087712990867995 5.696336230444195 0 1 0
1069 0 1 -1.1794 11.266799059931484 6.420370563670688 4.799966256837364 0 0 1
317 0 2 0.5897 11.23229925445978 4.467741356620754 7.686947459887581 0 -1 2
1139 0 2 0.5897 6.911655320341687 5.019225035810626 6.7385772128743895 0 0 -1
1779 0 2 0.5897 7.056007436860372 7.053983216741156 5.757826125660488 0 1 0
63 0 2 0.5897 9.618751628147008 6.708797718402744 6.659494032328496 0 -1 1
61 0 1 -1.1794 10.15501141722362 6.172266552470708 7.240908425037492 0 -1 1
1140 0 2 0.5897 7.808148834389649 4.330680955809377 7.716511291123987 0 0 -1
1070 0 2 0.5897 10.780020325311535 6.062372593726385 5.592656005410741 0 0 1
62 0 2 0.5897 10.642579102150513 6.844001319740873 7.771095794831083 0 -1 1
1952 0 2 0.5897 1.2873915491310193 8.160379569833681 7.471409507780521 1 2 1
1706 0 2 0.5897 4.205812781902765 8.515909676093981 6.6049587071480795 1 -1 2
1707 0 2 0.5897 4.80740475761212 9.616186560830824 5.668904165895707 1 -1 2
2147 0 2 0.5897 2.416214076944742 9.347245794962996 5.3750389377841445 0 -4 -1
2146 0 1 -1.1794 1.829425103847783 9.53344045146132 6.099266694873214 0 -4 -1
2148 0 2 0.5897 2.3834402659132063 10.125670603821428 6.642115382317463 0 -4 -1
1242 0 2 0.5897 3.7991152787856195 10.965567767134026 8.172834540264176 1 0 0
1240 0 1 -1.1794 2.855811283744534 11.308684481726104 8.15156955472455 1 0 0
1705 0 1 -1.1794 4.746487000207758 9.320949830370187 6.595550712360359 1 -1 2
693 0 2 0.5897 5.9106625541667315 11.763426609971603 7.561468825388373 1 0 -1
1755 0 2 0.5897 9.13508149947733 8.149247025439466 4.740031256340961 1 3 -1
1753 0 1 -1.1794 8.741571149413607 8.058892799838441 5.605194268735039 1 3 -1
1533 0 2 0.5897 6.489476529235266 8.926146084771048 7.727106394689831 1 -1 1
1754 0 2 0.5897 8.36588042724259 8.967514465049874 5.771999332595907 1 3 -2
348 0 2 0.5897 11.370640495801263 10.266798974655043 6.69179286736657 0 0 3
346 0 1 -1.1794 10.768390029611036 11.000366871831025 6.814382611687896 0 0 4
260 0 2 0.5897 8.700473898993769 10.873614019962732 6.1504550055383485 0 0 -1
261 0 2 0.5897 8.013636834200792 10.874858229681468 4.7446357676244135 0 0 -1
259 0 1 -1.1794 7.876911005675334 10.676764095281946 5.675484460703934 0 0 -1
347 0 2 0.5897 11.159704018090743 11.752526883443704 6.327668224943461 0 0 3
1531 0 1 -1.1794 7.264601770356314 8.941448499155626 8.325402687709364 0 -1 1
1241 0 2 0.5897 2.8925824517006746 12.114956257255477 7.602822312704352 1 0 0
1401 0 2 0.5897 1.36748131416771 14.971260230442754 4.401022038679453 0 0 -1
1634 0 2 0.5897 3.8229811102982567 12.908947171173871 4.955419643436217 0 -1 1
330 0 2 0.5897 1.8494014636411895 13.546319624319993 6.6850748569859615 0 -1 -1
328 0 1 -1.1794 2.8535855219046002 13.461780594425777 6.457119879929372 0 -1 -1
329 0 2 0.5897 3.251210424750952 14.17511075611816 6.986627448984958 0 -1 -1
1758 0 2 0.5897 5.082890097458029 15.571718516284536 6.679057635346013 1 -1 -1
1756 0 1 -1.1794 5.041442543865575 14.879340359209362 7.4025665590460115 1 -1 -1
1757 0 2 0.5897 5.47806504844143 14.031847929243881 7.066945976016116 1 -1 -1
691 0 1 -1.1794 6.0503364140519205 12.52262009495423 6.943801170669491 1 0 -1
106 0 1 -1.1794 0.6066396092423276 13.257937848086527 4.464451558179132 0 -1 0
692 0 2 0.5897 6.619729198486373 12.090736251834581 6.296590506324032 1 0 -1
966 0 2 0.5897 7.098681295250368 14.335455432818815 4.476150610221605 1 -2 1
1855 0 1 -1.1794 8.836451074069469 14.68337147308108 4.941625075079385 0 0 -1
1857 0 2 0.5897 9.531109127738686 14.292607286869845 5.582699322475923 0 0 -1
1498 0 1 -1.1794 11.01883269162282 14.098172777803297 6.332559109622274 1 2 1
2015 0 2 0.5897 10.498462158532108 13.85116386140414 7.939642607764619 1 0 1
1499 0 2 0.5897 11.50261012053763 14.95814521016746 6.537840737244294 1 2 1
1500 0 2 0.5897 11.610448855598927 13.66507424441601 5.722386595839617 1 2 1
1856 0 2 0.5897 9.18489083042069 15.5062710722448 4.485688390080481 0 0 -1
732 0 2 0.5897 3.734492297712185 17.91685158868724 4.208923280019162 1 0 0
1127 0 2 0.5897 5.396695883309023 16.100563645595226 4.701039485026003 0 -1 0
2150 0 2 0.5897 2.440031369455756 20.017101961269926 4.953232921119534 0 0 2
593 0 2 0.5897 0.8788890934615994 19.674847364862263 7.601426597687561 0 0 -3
382 0 1 -1.1794 2.245352521607001 16.99552696388023 6.451714630344163 0 5 -2
384 0 2 0.5897 3.0988546761048212 17.389698923924467 6.338456975957236 0 5 -2
383 0 2 0.5897 1.9953883580512375 16.907213267352795 5.534810484337192 0 5 -2
1126 0 1 -1.1794 4.833706823061946 16.76448278131619 5.117288751849034 0 -1 0
1128 0 2 0.5897 5.440877008402584 17.452830179860044 5.381666389768884 0 -1 0
594 0 2 0.5897 1.076299974667048 18.235723091910707 6.983098006645475 0 1 -3
1740 0 2 0.5897 5.011922005730598 19.61291241139853 6.656893637899534 1 1 -1
1738 0 1 -1.1794 4.200968946660725 19.61778541569325 7.218356891409614 1 1 -1
1322 0 2 0.5897 11.998834185269518 19.561082122128106 5.1524864604836695 0 1 2
993 0 2 0.5897 8.79133651087357 17.58175785080717 7.6495947373802755 1 -1 -1
992 0 2 0.5897 8.959976668859275 16.96557793613422 6.32439005136372 1 -1 -1
218 0 2 0.5897 7.122308107767092 19.59893780292441 6.591683132141529 1 2 1
1761 0 2 0.5897 9.51426633588691 19.631176266884815 5.592862049591344 1 0 1
217 0 1 -1.1794 6.6929714405351985 19.07913232859556 5.91088757764231 1 2 1
219 0 2 0.5897 7.05493710134313 19.39959761987653 5.059143976587634 1 2 1
991 0 1 -1.1794 9.42921020664956 17.530116085725737 6.931780568976143 1 -1 -1
564 0 2 0.5897 10.21813390596825 19.626359816930446 7.8514126387404195 0 -1 -1
1321 0 1 -1.1794 11.654402113517502 19.126974761191732 4.378980063307851 0 1 2
1793 0 2 0.5897 11.063817340254268 16.73456228530692 7.412908231248669 0 -2 0
1792 0 1 -1.1794 11.931401676209171 16.42461745835356 7.230353056170207 0 -2 0
747 0 2 0.5897 2.8818528589530215 2.3342036275529456 8.4587521639287 1 1 0
746 0 2 0.5897 1.9028859084462624 1.2960171217229661 9.081044502648188 1 1 0
1750 0 1 -1.1794 5.983187249456099 3.9246824123555326 10.039275680601245 1 0 2
1751 0 2 0.5897 5.942605614066997 3.777101793155614 10.987432124262178 1 0 2
807 0 2 0.5897 5.072958157791993 1.6884746030030229 10.170523645771642 0 1 1
806 0 2 0.5897 5.065985873764629 0.2640110257609181 10.604458312173946 0 1 1
805 0 1 -1.1794 4.463803848874312 0.9898538301833774 10.46182555600679 0 1 1
540 0 2 0.5897 4.1327865315432595 1.672257741383837 12.050205705146292 0 3 -2
266 0 2 0.5897 1.0845827816529592 1.7855110531558886 11.08563369354939 0 0 -1
265 0 1 -1.1794 1.0395042659349962 0.8939682182909702 10.664159034364197 0 0 -1
563 0 2 0.5897 10.200169572795437 0.39896107977453565 9.184336309595167 0 0 -1
74 0 2 0.5897 7.3988226642590345 0.7992121057995214 8.674202413171376 0 0 -1
1752 0 2 0.5897 6.897831706836228 3.942716623181147 9.810831278441729 1 0 2
768 0 2 0.5897 7.706314859553884 0.7972670455473085 10.967200375212633 0 -1 1
506 0 2 0.5897 11.74858723198508 3.9649764308747972 12.019375031372572 0 0 0
1836 0 2 0.5897 10.723335791963136 2.98673711197528 9.388332156942441 0 0 -2
1834 0 1 -1.1794 10.551156699138744 2.2430585817922615 10.0292097522539 0 0 -2
1835 0 2 0.5897 9.866455300542317 2.6038635624739657 10.611667544707567 0 0 -2
1578 0 2 0.5897 11.518700467906617 0.3225176406052412 12.348699744311642 0 -1 2
2110 0 1 -1.1794 8.113985398728218 2.250812909618386 12.13842317993143 0 1 -2
1577 0 2 0.5897 11.54900310491965 1.047233888416938 11.043547371005584 0 -1 2
766 0 1 -1.1794 7.1568323190866865 0.18013908186047484 10.46454679554153 0 -1 1
1953 0 2 0.5897 1.0314626584215785 6.9416075495073715 8.414282022297668 1 2 1
1102 0 1 -1.1794 3.1491144575780905 4.381346977616864 8.530844304344587 0 3 -1
1951 0 1 -1.1794 1.0847142886423702 7.891354317067673 8.387152346651586 1 2 1
1103 0 2 0.5897 3.7088086753844838 4.927109400043481 9.099033713088378 0 3 -1
1104 0 2 0.5897 2.2938796528565417 4.562181901005672 8.943568901479338 0 3 -1
303 0 2 0.5897 4.196585436005119 7.767896676587914 9.692716642215833 0 0 1
1737 0 2 0.5897 2.929805241667869 6.734345140267555 11.373463801194656 1 1 1
1048 0 1 -1.1794 5.487276661630699 6.511917794370283 8.992556513597012 0 -1 -1
1735 0 1 -1.1794 2.2595203648795636 6.166766269121527 11.769801463830268 1 1 1
1049 0 2 0.5897 5.797543935302463 6.339116474025282 9.930018527440648 0 -1 -1
1050 0 2 0.5897 5.748291017621994 5.726073975977612 8.484300394297193 0 -1 -1
2246 0 2 0.5897 1.5571659975368697 4.25562818401815 12.325064529584731 1 -1 1
1736 0 2 0.5897 1.389185846502127 6.653278464284958 11.724878717053775 1 1 1
1227 0 2 0.5897 6.2287905798437535 5.69632546658001 12.102920860158072 1 0 0
1225 0 1 -1.1794 6.175779293857064 6.604914066113157 11.764912498076493 1 0 0
1226 0 2 0.5897 5.6445681567467485 7.0586873885816175 12.449131865498419 1 0 0
1267 0 1 -1.1794 8.532614906825811 4.8742142901579975 9.156419510560992 0 1 1
1269 0 2 0.5897 9.079559953988264 4.802596270298682 9.937108403904363 0 1 1
1268 0 2 0.5897 9.053532191955295 5.381288723332151 8.548745487388924 0 1 1
1301 0 2 0.5897 11.492872544779624 5.509471206922205 10.560082058591515 0 0 0
1300 0 1 -1.1794 10.752245965542448 5.099067073222881 11.051282643495954 0 0 0
1302 0 2 0.5897 10.439678745614383 5.864596222240055 11.573883822979203 0 0 0
1099 0 1 -1.1794 8.90584309725526 7.0273860720547665 11.435117142412597 0 -1 1
1100 0 2 0.5897 7.943435163636384 6.917364410157256 11.297791235158792 0 -1 1
1101 0 2 0.5897 9.149334396241244 7.492480520084414 10.629061944307521 0 -1 1
215 0 2 0.5897 11.571500112356784 7.87121288657786 12.13702760165395 1 2 -2
2087 0 2 0.5897 0.6067908973787319 9.33699237876017 9.29338915506124 0 0 0
302 0 2 0.5897 2.94666243887197 8.458334698966745 9.354271846963433 0 0 1
301 0 1 -1.1794 3.5428289299745517 8.286589988931464 10.117451946854088 0 0 1
2088 0 2 0.5897 1.351347889633666 10.366696542962618 10.12600673868349 0 0 0
2243 0 2 0.5897 3.4617395629795054 9.548936847054266 11.487501341427983 1 3 3
2242 0 1 -1.1794 3.1550029984342958 10.251654319515865 12.115430677065616 1 3 3
2244 0 2 0.5897 3.3338228172731057 11.087189599678318 11.681649949570211 1 3 3
68 0 2 0.5897 5.656026791297889 10.41651141209748 9.831308981616468 0 3 -1
67 0 1 -1.1794 5.512569145275604 11.327001547510157 9.648666497092684 0 3 -1
69 0 2 0.5897 6.121204902778793 11.716000135254784 10.292159146907863 0 3 -1
1532 0 2 0.5897 6.999379317457218 8.128446183412267 8.81724557513423 0 -1 1
532 0 1 -1.1794 10.029896193323738 8.474849500895067 9.129295859163088 0 1 1
534 0 2 0.5897 9.531837295210584 8.945304512606116 8.43962079614802 0 1 1
555 0 2 0.5897 10.986278220581895 11.247234231025743 10.065410699925351 0 1 -1
554 0 2 0.5897 11.335305015043621 11.191879837495895 8.495760847149539 0 1 -1
533 0 2 0.5897 10.495050535435048 9.125127629155118 9.58640220626376 0 1 1
2122 0 1 -1.1794 7.621541267238608 11.453686261376921 11.182235643196146 0 -1 -2
2123 0 2 0.5897 7.989990328900076 11.25914933415656 10.30876947253345 0 -1 -2
553 0 1 -1.1794 11.509016645488696 10.819917646510527 9.373314263928329 0 1 -1
2124 0 2 0.5897 8.007964639698248 10.770744482044146 11.76344013287923 0 -1 -2
1624 0 1 -1.1794 10.732185742408378 11.413404044282535 11.784812929790952 0 -2 1
1353 0 2 0.5897 8.850318072153636 8.565419213559165 12.420687204490328 0 -1 -2
1625 0 2 0.5897 10.20903225374301 10.665526211685386 12.197365465162338 0 -2 1
1626 0 2 0.5897 11.661750432539352 11.327699202133575 12.132334979489935 0 -2 1
1790 0 2 0.5897 0.725850704638292 14.788030387479177 8.617979757385736 0 -1 1
386 0 2 0.5897 2.7882436097973424 12.293128858789702 9.494296692554103 0 -1 0
387 0 2 0.5897 2.9910883446459704 13.681100641612629 9.983471450682687 0 -1 0
385 0 1 -1.1794 2.6467235676625456 12.822701648469552 10.319181429740889 0 -1 0
1734 0 2 0.5897 0.7513694628440893 13.244970131663363 10.560322743907186 1 -1 1
290 0 2 0.5897 4.186224583107027 13.217574460340487 11.50731178027703 0 -2 -2
277 0 1 -1.1794 4.246846929660032 15.288430718578493 10.314411590349634 0 0 -1
278 0 2 0.5897 4.648909627260949 15.180159270102855 9.473056114017515 0 0 -1
491 0 2 0.5897 1.5550775216006303 16.00335792383971 10.904618959133014 1 0 0
279 0 2 0.5897 3.5052912681639916 15.948057743062419 10.227659244538348 0 0 -1
289 0 1 -1.1794 4.461186809996925 13.133351751949675 12.451795214926952 0 -2 -2
1789 0 1 -1.1794 0.99519104723025 15.622346931087947 9.068165075974598 0 -1 1
2235 0 2 0.5897 6.330291314186029 15.512701937609162 12.065825608709444 1 2 -1
2234 0 2 0.5897 6.8201374392782945 14.383576884245425 10.990036867822848 1 2 -1
2233 0 1 -1.1794 6.708820958243305 14.62991907668175 11.95267168401983 1 2 -1
2014 0 1 -1.1794 10.260866757740073 13.6110557139438 8.841441851642385 1 0 1
765 0 2 0.5897 7.012302234306718 13.513543415379356 8.58021899627399 0 0 -1
763 0 1 -1.1794 7.488951961226753 13.914822096527272 9.338870616873926 0 0 -1
764 0 2 0.5897 8.428820199592721 13.669481112213997 9.267024461877487 0 0 -1
1587 0 2 0.5897 9.941447464606437 14.742786912584311 11.478622289888593 0 -3 0
2016 0 2 0.5897 10.387593070362122 14.38576751597639 9.461736059174287 1 0 1
1053 0 2 0.5897 8.330795075103376 13.572248570878575 12.200059575921184 0 1 0
1052 0 2 0.5897 9.578736388911258 12.688495874900038 12.343531547161858 0 1 0
1585 0 1 -1.1794 10.521419796156245 15.292222578910073 10.954731244247476 0 -3 0
1014 0 2 0.5897 12.031604661299783 15.237952229272194 11.48711550712041 0 -1 1
1791 0 2 0.5897 1.4766242645834045 16.151939925396753 8.452055345137568 0 -1 1
1297 0 1 -1.1794 5.174739115868111 18.160188228156844 9.526930063066944 0 0 -2
1298 0 2 0.5897 4.836832186005941 18.58514505784121 8.723892846697815 0 0 -2
1299 0 2 0.5897 6.088137163156782 17.96901776471344 9.260864686706997 0 0 -2
312 0 2 0.5897 1.7367623977020235 19.745364820262417 11.957510363793716 0 -2 1
221 0 2 0.5897 5.34102359315924 17.27337501187076 11.167116140661921 1 -2 0
311 0 2 0.5897 1.8374586970331301 18.24209266793983 12.470134187306414 0 -2 1
220 0 1 -1.1794 5.3814246355696485 17.123865830493703 12.136066168461998 1 -2 0
490 0 1 -1.1794 1.5641637219218287 16.2372925150494 11.895943967588279 1 0 0
492 0 2 0.5897 0.6677413662240738 16.058582740382015 12.195397272713475 1 0 0
222 0 2 0.5897 4.628443285093432 16.516022487703815 12.386224388153218 1 -2 0
132 0 2 0.5897 7.4081835183711675 16.063544127809138 8.777941970678297 0 -3 0
562 0 1 -1.1794 10.520178659830854 19.650756093639647 8.759652548365661 0 -1 -1
767 0 2 0.5897 7.184515844237744 19.414637019144585 10.979077724548818 0 -2 1
130 0 1 -1.1794 7.535772452694331 16.9655120436531 8.881541823098978 0 -3 0
1782 0 2 0.5897 9.844410962295443 18.43001862479734 9.801575166661594 0 -2 1
131 0 2 0.5897 8.056963489783326 17.105396491081883 9.73373906971897 0 -3 0
1586 0 2 0.5897 10.192904682663837 16.23295552267314 10.886416558829207 0 -3 0
1781 0 2 0.5897 9.88015101796329 18.193423968527874 11.348751251406558 0 -2 1
1780 0 1 -1.1794 9.465639997260892 17.922064871810996 10.537821560690862 0 -2 1
2245 0 1 -1.1794 1.3946824815944838 3.342397042214968 12.55926249152368 1 0 1
1788 0 2 0.5897 2.7642549734286317 1.8100659079282433 15.665964092302954 0 -3 -1
1786 0 1 -1.1794 3.070745564900958 2.232175650590452 16.457545646483695 0 -3 -1
538 0 1 -1.1794 4.053352954923017 2.1946944046350576 12.918622023533631 0 3 -2
539 0 2 0.5897 3.2096936826554026 2.6290249185498733 12.806595517042329 0 3 -2
849 0 2 0.5897 5.074392744066348 1.3635882106305839 14.391586715333426 0 2 1
1787 0 2 0.5897 3.626624580554437 2.9840260682998996 16.2126261335235 0 -3 -1
847 0 1 -1.1794 5.822194089927996 0.9874092050302021 14.85357007438868 0 2 1
848 0 2 0.5897 5.669326173374897 1.078914007781595 15.797652370483387 0 2 1
1278 0 2 0.5897 5.43703748982091 3.6299629023772915 13.37432319281324 0 -1 -1
361 0 1 -1.1794 1.976216990439263 0.27352379082248757 15.075674994381076 0 4 0
2247 0 2 0.5897 0.9556650325251101 3.3564834543277935 13.402367037154445 1 0 1
2111 0 2 0.5897 7.397548971994068 2.726023899944099 12.622217614961784 0 1 -2
2112 0 2 0.5897 8.507209995577007 1.6843761102412997 12.802911630897757 0 1 -2
314 0 2 0.5897 7.628686471216603 2.1866551727886923 15.52135916687629 0 -3 -3
315 0 2 0.5897 8.89842572218708 2.7480320727968803 16.114250068833872 0 -3 -3
313 0 1 -1.1794 8.422413814596126 1.9084470677052094 15.961331381248447 0 -3 -3
45 0 2 0.5897 11.089516966339627 1.982561320320342 15.548471230818464 0 1 1
98 0 2 0.5897 9.858739772210322 0.5507791498137772 14.074591358889343 0 -1 -1
43 0 1 -1.1794 11.593070147577661 1.5583524666448583 14.843845314190089 0 1 1
97 0 1 -1.1794 9.719264455826284 0.11713400763927694 13.219932572880815 0 -1 -1
44 0 2 0.5897 11.22157299986314 1.8892395205017258 14.02079449793222 0 1 1
1276 0 1 -1.1794 6.283344925112115 4.042181462900806 13.095928921305736 0 -1 -1
589 0 1 -1.1794 4.500830664629211 4.214645752580972 15.519773532004756 0 -2 0
590 0 2 0.5897 5.051048779840778 4.5632369737045515 16.26051638577796 0 -2 0
591 0 2 0.5897 4.077975905053451 5.018258556719575 15.151320975655725 0 -2 0
1827 0 2 0.5897 2.5669010440330258 6.263435490412887 13.589522444517605 0 -3 0
1825 0 1 -1.1794 2.913540672826954 6.214604173285509 14.509965226849 0 -3 0
1826 0 2 0.5897 2.231652758016681 6.683967751430272 15.029340254374034 0 -3 0
1337 0 2 0.5897 4.048541761176782 7.909184895837984 14.382280368129653 0 2 -5
2248 0 1 -1.1794 0.8041355029405599 7.51864828141243 16.134244803393834 1 1 1
1277 0 2 0.5897 6.772505126622033 4.16384644892234 13.92626952232072 0 -1 -1
2059 0 1 -1.1794 8.062871762292538 4.6773616969734935 15.13963381562864 0 -1 0
610 0 1 -1.1794 10.857600727935939 4.649083349471824 14.619965316375842 0 3 1
2060 0 2 0.5897 8.977244815053266 4.811748448312847 14.775348747858049 0 -1 0
375 0 2 0.5897 10.618264202837613 7.5475137126539 14.904721671284568 0 -1 -1
2061 0 2 0.5897 7.724885158662026 5.582770032924308 15.219447173566383 0 -1 0
214 0 1 -1.1794 11.467554903685574 7.345050759481851 12.94494637999471 1 2 -2
2265 0 2 0.5897 6.32348869806553 7.6199832924365065 15.120828284148462 1 2 1