LAMMPS data file via write_data, version 23 Jun 2022, timestep = 15100000

2268 atoms
2 atom types

0.5403023470544106 46.91039665292553 xlo xhi
0 20.047001 ylo yhi
0 20.857 zlo zhi

Masses

1 1.008
2 15.999

Atoms # full

1142 0 2 0.5897 3.3087352109090302 1.558603518325999 1.3429989149552655 0 -3 0
1141 0 1 -1.1794 3.7912551411926594 2.355953788972283 1.1006216745463602 0 -3 0
1143 0 2 0.5897 4.300063000473898 2.4318529520752494 1.903242104037447 0 -3 0
1375 0 1 -1.1794 1.5852860986095327 0.5425933940185473 2.5829937649103405 0 1 1
979 0 1 -1.1794 5.901906791529834 3.026485390708347 2.938070644501727 1 1 0
17 0 2 0.5897 0.9230382094958518 2.559942218090374 3.112084543721143 0 0 0
981 0 2 0.5897 6.1118841560182195 2.2025220084416883 3.382816828544887 1 1 0
980 0 2 0.5897 5.50174723635838 3.608521104742751 3.6349560503980136 1 1 0
245 0 2 0.5897 7.890531359104856 1.2861260516145379 0.7660133713294416 1 -3 0
246 0 2 0.5897 7.69291798816874 2.591608281945198 0.22061848778787332 1 -2 0
244 0 1 -1.1794 8.398311432696058 2.104550287161499 0.6355312378332952 1 -3 0
1381 0 1 -1.1794 8.752561689692252 2.918100472029847 3.157790175880715 0 0 1
317 0 2 0.5897 10.7509729844437 3.3952565757327835 0.3570374559651709 0 1 1
1382 0 2 0.5897 8.678953943289805 2.6641037154836664 2.173802840388127 0 0 1
1383 0 2 0.5897 7.901213148963707 2.669976483101829 3.5330281442100215 0 0 1
1391 0 2 0.5897 10.92367053193813 0.35977170488633403 3.2789436939638366 0 2 -1
318 0 2 0.5897 11.253864134961141 3.26574375602484 1.8271487209332107 0 1 1
316 0 1 -1.1794 11.204833866623831 2.799457792868114 0.8920340393502427 0 1 1
1392 0 2 0.5897 9.882400613291269 1.4548726134747538 3.625517247305544 0 2 -1
1390 0 1 -1.1794 10.422681399688955 0.6744914678345041 4.010072082995583 0 2 -1
306 0 2 0.5897 7.844510654662939 0.16063196563796045 4.133124189942854 0 1 2
138 0 2 0.5897 3.9102327311966114 5.664270512156713 2.5844324435084913 0 2 0
136 0 1 -1.1794 3.9119295604389466 5.956116347634954 3.520238225469867 0 1 0
2015 0 2 0.5897 4.019039055175471 7.753668434524441 0.27910398071306675 1 1 1
1644 0 2 0.5897 3.7872053034946798 4.224416631525986 0.5960458983962055 0 0 -1
1642 0 1 -1.1794 4.366328942702939 4.9556384525037585 0.8851461734283552 0 0 -1
1643 0 2 0.5897 3.822509530796484 5.701943719276604 0.6230416708195189 0 0 -1
513 0 2 0.5897 1.1433866381890758 5.260733658405016 3.423288409728224 0 -1 0
776 0 2 0.5897 6.205766341711275 4.974954199808678 0.693446723258417 0 1 -2
90 0 2 0.5897 2.7959133676547863 7.542387214932845 3.555360468451728 0 0 -1
2014 0 1 -1.1794 3.1691382238433894 7.224217426513562 0.2721062053825696 1 1 1
137 0 2 0.5897 3.3248940316926805 5.372596914820017 4.001418570174087 0 1 0
849 0 2 0.5897 1.3209141687418064 6.175099407282429 0.9077583393730954 0 2 2
847 0 1 -1.1794 0.6638597273426441 6.080756852650647 1.6042526294574133 0 2 2
545 0 2 0.5897 7.792383423930612 6.813891559379108 1.6793113338246815 0 2 0
1891 0 1 -1.1794 8.739739978019006 5.747997357035713 3.479995236236814 0 -1 -2
1893 0 2 0.5897 9.615028731661804 5.940485784673369 3.2592628464706905 0 -1 -2
1892 0 2 0.5897 8.647289778965854 4.803674776189796 3.6260692714215708 0 -1 -2
544 0 1 -1.1794 8.14141884108216 7.470647092249341 1.0884911802227668 0 1 0
1855 0 1 -1.1794 11.207274610443449 6.984699046207026 2.8400152894320163 0 -1 -1
775 0 1 -1.1794 7.128330315978445 4.855361909096833 1.04338164936608 0 1 -2
1856 0 2 0.5897 11.516522869159857 6.985643453357679 1.9506757098920742 0 -1 -1
1857 0 2 0.5897 11.824501328139803 6.433847924927408 3.298073316326999 0 -1 -1
777 0 2 0.5897 7.013212311061753 4.180902625539433 1.7255529534178813 0 1 -2
485 0 2 0.5897 9.015699180095181 5.273495566730798 0.08432323782253268 1 1 0
1540 0 1 -1.1794 5.60781750956521 8.634416599357108 0.9882834884172602 0 0 1
89 0 2 0.5897 1.448070770128125 8.227246099607779 3.819321298351626 0 0 -1
88 0 1 -1.1794 2.398643274950195 8.383207121044544 3.70443133310343 0 0 -1
1772 0 2 0.5897 3.913871488326409 9.218730017320551 3.663478489412732 0 0 -1
1773 0 2 0.5897 5.077091843778853 9.16925790592852 2.59970128825593 0 0 -1
1771 0 1 -1.1794 4.801754593568405 9.558300983026413 3.4802598599894146 0 0 -1
481 0 1 -1.1794 1.1168979247744164 10.642192361786105 0.9931790773326166 1 0 0
1542 0 2 0.5897 5.597588869405086 9.275889615563448 0.2870673173154347 0 0 1
284 0 2 0.5897 3.1300625227418393 11.74384650691746 0.9143982298629321 0 1 0
483 0 2 0.5897 1.0390952286037773 10.77604750022376 0.032410412733662755 1 0 0
1541 0 2 0.5897 6.54670725950693 8.256329434101591 0.8700970188730692 0 0 1
546 0 2 0.5897 8.666117099044136 8.122321221319176 1.5574100285514263 0 1 0
1314 0 2 0.5897 10.987358695124481 8.67288046068285 3.5957890187763146 0 -1 -1
261 0 2 0.5897 8.423182600167511 10.547733514918443 2.8279011529801155 0 -1 -1
1766 0 2 0.5897 11.169827188669819 11.010638050133426 0.475348416558293 0 2 -1
1767 0 2 0.5897 10.59880152214467 10.173802135436288 1.6337770272868362 0 2 -1
260 0 2 0.5897 7.9224325650537875 11.181374291538186 1.5193641632019699 0 -1 -1
259 0 1 -1.1794 8.619444474388295 10.596472729872772 1.9071551593534068 0 -1 -1
1765 0 1 -1.1794 11.388277695964526 10.26818571649222 1.0750125520296274 0 2 -1
1312 0 1 -1.1794 10.908544362455782 9.558094517572062 3.976707255969091 0 -1 -1
725 0 2 0.5897 10.929694010869142 11.376968715054945 3.4329565667408763 1 0 -2
1260 0 2 0.5897 11.536585654999238 8.587161410374978 0.20322373845349112 1 2 -1
2097 0 2 0.5897 1.0286347830766378 12.274743491421619 2.1801508666358216 0 0 2
283 0 1 -1.1794 3.5800134250783953 12.57159163596281 0.8536333019668556 0 1 0
1287 0 2 0.5897 4.6302175816276385 12.828159649008166 3.762231824131676 0 0 1
2033 0 2 0.5897 6.086983620261463 12.777672936411866 1.8598066373439501 0 -2 -3
49 0 1 -1.1794 2.425048149207056 14.978636599621543 3.0108816877253552 0 0 4
51 0 2 0.5897 2.547900768830696 14.889829665329998 4.020637517776234 0 0 4
1286 0 2 0.5897 4.564183130435177 13.95368100529094 2.7112726399335543 0 0 1
1285 0 1 -1.1794 5.132392314335399 13.52588495239666 3.2997008365967058 0 0 1
50 0 2 0.5897 2.132367195066919 14.140076609895244 2.661689042891137 0 0 4
1587 0 2 0.5897 3.2905293133828857 15.869180251318582 1.8269331735418761 0 -2 0
69 0 2 0.5897 0.8985290877436245 15.876324698872983 2.5775001153815897 0 3 0
2095 0 1 -1.1794 0.6548936210245735 13.066335286176503 2.614333219158107 0 0 2
285 0 2 0.5897 3.1074738815482634 12.949834652740973 0.09503202001727723 0 1 0
2032 0 1 -1.1794 6.5219882594278005 12.215406354333965 1.1862229566696934 0 -2 -3
743 0 2 0.5897 8.26584803174755 13.667313453552616 2.6684393730626343 1 -1 1
742 0 1 -1.1794 9.11285081301082 13.940343059322347 2.2963837443391353 1 -1 1
744 0 2 0.5897 9.708092758094763 13.140840303706 2.317839590847918 1 -1 1
1982 0 2 0.5897 8.924299111784308 14.99757056151617 0.9708139687380297 1 -1 2
2102 0 2 0.5897 9.739823439535238 14.804341004549793 3.6809454222650064 0 -2 0
1981 0 1 -1.1794 8.843992508041456 15.36878082962492 0.05465292610835049 1 -1 2
2034 0 2 0.5897 6.5872514032203835 12.671786342700862 0.31275227043973625 0 -2 -3
726 0 2 0.5897 11.83677980430166 12.44224244608792 2.876759776234507 1 0 -2
2101 0 1 -1.1794 10.366313130166292 15.392569660936376 4.124997017706068 0 -2 0
724 0 1 -1.1794 10.963674578472913 12.317841525382178 3.20465452894139 1 0 -2
1377 0 2 0.5897 1.6445769858523263 19.962730079624514 1.8889645172244705 0 0 1
1376 0 2 0.5897 1.7281778399545058 20.003524540550966 3.3105058053137975 0 0 1
1951 0 1 -1.1794 4.40604895031206 19.72711246362685 3.6527329295388764 1 1 1
951 0 2 0.5897 5.657392054184965 16.23397853203486 1.8287749535193178 1 0 0
1585 0 1 -1.1794 3.7787454359012145 16.433466438179668 1.1959963098609172 0 -2 0
1586 0 2 0.5897 3.739682990200178 16.099010784116444 0.29265890812426976 0 -2 0
210 0 2 0.5897 1.241463923325072 17.841695837921314 1.2736999076199709 1 0 0
1953 0 2 0.5897 4.522407701211464 19.550691569830633 2.7209629464471767 1 1 1
208 0 1 -1.1794 1.569876159848712 18.573222527848543 0.7307189293041653 1 0 0
209 0 2 0.5897 2.461104626100181 18.35562904874566 0.5767823608644986 1 0 0
1094 0 2 0.5897 6.181463873992675 19.73240848956892 1.284160453638349 0 -2 2
2155 0 1 -1.1794 4.409089724211306 19.153243594861227 0.7729602031704808 0 -1 -3
2156 0 2 0.5897 4.329894920955516 18.24619282113065 1.0239012026523104 0 -1 -3
1353 0 2 0.5897 0.7826108881492693 17.74185627965672 3.7745516435199034 0 -2 -1
1952 0 2 0.5897 5.349313472877661 19.85584596815762 3.9592811170304563 1 1 1
949 0 1 -1.1794 6.671550523572152 16.136936774576405 1.9643263009489924 1 0 0
950 0 2 0.5897 6.991456473114191 16.47006121592994 1.1015360018716005 1 0 0
1093 0 1 -1.1794 7.117437318171035 19.779039604343502 1.1955937592404224 0 -2 2
255 0 2 0.5897 9.894157785319333 18.54476895252008 0.8491840580987193 0 -2 0
522 0 2 0.5897 10.688688141723091 16.819859714218815 3.226042306105363 0 3 1
1095 0 2 0.5897 7.533832643051051 19.648839704809124 2.03837468370472 0 -2 2
520 0 1 -1.1794 10.727830766589344 17.623373561570425 2.6165528666532074 0 3 1
441 0 2 0.5897 9.285851769751554 18.093496741969847 3.219175788635005 1 0 1
439 0 1 -1.1794 8.386038545299298 18.460584894004533 3.4204374265137742 1 0 1
521 0 2 0.5897 11.460722391823886 18.257906705856087 2.888252093524424 0 3 1
440 0 2 0.5897 7.750813768705532 17.88251626827816 3.003585239616599 1 0 1
222 0 2 0.5897 11.459125505583183 17.024974497414682 0.05291356387251402 1 -1 0
253 0 1 -1.1794 10.360337810390275 18.767375968173674 0.03684414314351934 0 -2 0
125 0 2 0.5897 11.996141916057102 19.432444867098482 0.130973246122869 0 -1 -1
1625 0 2 0.5897 2.1740045202182166 3.727004686631534 7.344693822527162 0 -1 0
227 0 2 0.5897 3.629586109112337 0.6374154487943975 4.974342823076473 1 1 0
228 0 2 0.5897 2.5211339252108327 0.7288640900313796 6.20705983728784 1 1 0
226 0 1 -1.1794 3.3819851480497474 1.0036518285634757 5.866294448917471 1 1 0
1362 0 2 0.5897 3.8294660470622586 2.8408810715138775 5.5972314758750255 0 -2 0
268 0 1 -1.1794 5.582506686288317 0.17333826893235357 7.312989556642929 0 0 -1
269 0 2 0.5897 4.8610811335098285 0.4016136636149545 6.734413241891809 0 0 -1
1626 0 2 0.5897 1.106067184825473 2.781785638211248 6.840567110773738 0 -1 0
1624 0 1 -1.1794 1.3922789753491216 3.7231499182422234 6.78760401326038 0 -1 0
1360 0 1 -1.1794 4.326174483568246 3.6286082595043228 5.438898276783039 0 -2 0
2262 0 2 0.5897 11.593559560280417 1.6780199636244912 7.298472075805273 1 0 1
2132 0 2 0.5897 8.243695349052736 1.6346319247157348 7.4725117848011084 0 1 0
2131 0 1 -1.1794 8.118707709860317 2.0662180288835805 6.602112665418951 0 1 0
2133 0 2 0.5897 9.00685866621567 2.437813434161023 6.314365713927756 0 1 0
305 0 2 0.5897 7.427753362515098 1.040512244534856 5.310839381471518 0 1 2
729 0 2 0.5897 12.074061475981601 1.0144020140743442 5.140425473757905 1 -1 0
1196 0 2 0.5897 7.080647179366436 3.5848757272865015 7.133204623537856 1 2 -1
2151 0 2 0.5897 10.724088172829319 3.909358208875755 4.7498742406272125 0 0 2
2150 0 2 0.5897 10.902570812400088 3.984164816337365 6.262324204675056 0 0 2
2149 0 1 -1.1794 10.238527896547792 3.7793587345529036 5.554903993256037 0 0 2
304 0 1 -1.1794 7.094580183877592 0.7367043680727056 4.45608656166222 0 1 2
2261 0 2 0.5897 10.714013250633025 0.5441786432189525 7.793718349182104 1 0 1
2260 0 1 -1.1794 11.130057579330764 1.354230022025101 8.07802518583552 1 0 1
1235 0 2 0.5897 5.385725574063965 6.150165835377943 4.512911780303591 1 0 2
1361 0 2 0.5897 4.151154446322094 4.099901091238834 6.232602778534197 0 -2 0
1028 0 2 0.5897 2.407155120840584 6.673041722905562 5.796872904648539 0 1 1
1027 0 1 -1.1794 2.3774483648411104 7.220703399170798 6.557018164739007 0 1 1
1029 0 2 0.5897 2.9679905120752523 7.964872273206358 6.375253381647433 1 1 1
1768 0 1 -1.1794 3.565740736697067 5.254825918835013 7.864219816046957 0 1 0
1769 0 2 0.5897 3.0854489722340728 6.018937851877281 7.503530821080772 0 1 0
511 0 1 -1.1794 1.5293484660709495 5.242322771843145 4.344155411760084 0 -1 0
1234 0 1 -1.1794 6.247213731446603 6.269507669947204 4.908033623630214 1 0 2
884 0 2 0.5897 5.161945975038959 6.4040248882998725 8.259807869184923 0 1 -1
512 0 2 0.5897 1.026233884720385 4.532912582583394 4.82739970613439 0 -1 0
1195 0 1 -1.1794 7.007391720307905 4.488673096991927 7.499548165045867 1 2 -1
1236 0 2 0.5897 6.899681020050494 6.116613075107023 4.2532815204277865 1 0 2
1197 0 2 0.5897 6.8122792190927415 5.012966553709803 6.701447741528065 1 2 -1
2265 0 2 0.5897 9.575349677477487 5.53944320378839 5.93004602489527 1 1 1
2263 0 1 -1.1794 9.628632595404904 6.338557136590637 6.450653906967809 1 1 1
2264 0 2 0.5897 9.081852103455484 7.037047731979441 6.079379827409198 1 1 1
314 0 2 0.5897 11.621524877529025 6.835143199550337 5.945006774999632 0 -2 -1
262 0 1 -1.1794 11.752751413789236 4.368666548687679 7.699078720030177 0 0 1
1562 0 2 0.5897 7.032388914753165 7.613484763474952 5.61103030281782 0 1 3
264 0 2 0.5897 11.911852496323672 5.246416780192707 8.019219352254629 1 0 1
1229 0 2 0.5897 5.481951333069794 8.327183763031437 7.333705593379915 1 -2 0
1230 0 2 0.5897 5.297175237431914 9.125162200554495 5.988054777745349 1 -2 0
736 0 1 -1.1794 3.9916210531591054 11.583430924556744 5.124788458170367 1 3 -1
737 0 2 0.5897 4.081212033066341 10.754675076378668 4.59565612200532 1 3 -1
738 0 2 0.5897 3.116416496060333 11.517729949215466 5.5775564450774935 1 3 -1
1228 0 1 -1.1794 4.934063253460785 9.001530615004757 6.877254064163274 1 -2 0
2249 0 2 0.5897 3.9474142795485214 9.841502612480515 8.226875584506892 1 1 1
1244 0 2 0.5897 1.1386813013975383 11.621811640695759 7.141520933887889 1 2 2
1243 0 1 -1.1794 1.5825673180167763 11.959534399536087 6.359026378958133 1 2 2
1128 0 2 0.5897 6.6058862764031465 10.242920207062182 4.185533841531792 0 0 0
1126 0 1 -1.1794 7.46922920279957 10.504489143113735 4.532741755768737 0 0 0
1313 0 2 0.5897 10.599143485733839 9.555010468490124 4.96731663892346 0 -1 -1
1563 0 2 0.5897 7.433552955715163 8.540952414421199 6.802498258224092 0 1 3
1561 0 1 -1.1794 7.734925533167148 8.21763484798578 5.88693595452271 0 1 3
490 0 1 -1.1794 10.651082617773865 9.871837797693278 6.712531401256492 1 -1 1
492 0 2 0.5897 9.969490919873607 9.859821959066993 7.45803127071443 1 -1 1
1127 0 2 0.5897 7.697485010421564 9.807075989765064 5.1571362061427 0 0 0
2257 0 1 -1.1794 8.194365305843846 9.535109686098545 8.013302146343195 1 0 0
491 0 2 0.5897 11.468174791216862 9.685937884261367 7.233350235923252 1 -1 1
387 0 2 0.5897 10.91925606583367 11.50128327847987 6.232938277845531 0 0 0
2259 0 2 0.5897 7.865944436801679 10.432848969508889 8.240709826051223 1 0 0
2252 0 2 0.5897 5.331617214603232 14.806473947430955 5.9490049111988625 1 -1 -1
218 0 2 0.5897 2.510482504670616 13.662291481700162 6.15133187885341 1 0 2
217 0 1 -1.1794 2.7597501614285216 14.555298312524975 5.848112682863316 1 0 2
219 0 2 0.5897 2.102746877544493 15.126570571769959 6.278843581547119 1 0 2
1252 0 1 -1.1794 5.271646657898657 13.20474178070315 6.939012682827067 1 1 1
1253 0 2 0.5897 4.9385691234744 12.377594794200718 6.533379265277332 1 1 1
2211 0 2 0.5897 4.320777218094421 13.758846085399199 8.321086458254758 1 1 1
2253 0 2 0.5897 5.556428808639265 14.878536439314528 4.483225176169683 1 -1 -1
2251 0 1 -1.1794 5.684772017889474 15.411015230562596 5.248912165832137 1 -1 -1
1254 0 2 0.5897 5.986738564007991 12.82187340265353 7.434553746067271 1 1 1
1017 0 2 0.5897 0.7812935847278639 15.787998898472683 8.214906409028728 0 -2 1
1245 0 2 0.5897 0.8510897875859916 12.176172941650092 5.75873372363862 1 2 2
1297 0 1 -1.1794 7.941302100576208 13.23261315128336 4.790399982036555 0 0 -1
1299 0 2 0.5897 7.930023547948312 12.278767324291314 4.9461955051952975 0 0 -1
1298 0 2 0.5897 7.001745301806942 13.400105674333272 4.864657249484859 0 0 -1
385 0 1 -1.1794 11.011922219583397 12.443911160804204 5.981653035098611 0 0 0
386 0 2 0.5897 10.9027464257356 12.459797353406355 5.0422617590798255 0 0 0
1049 0 2 0.5897 9.712810426688932 13.400203067692551 6.642519332374186 0 -1 0
2103 0 2 0.5897 9.866491277646084 15.751018985867264 4.881629464567729 0 -2 0
1048 0 1 -1.1794 9.1929819317273 13.871481666111661 7.326716873596417 0 -1 0
714 0 2 0.5897 8.149504910015366 12.598162311477926 7.8979765674823215 1 0 1
1347 0 2 0.5897 8.567071659446258 15.615209103884824 6.706197343094298 0 0 -1
1346 0 2 0.5897 7.559587262047108 15.555759634958054 5.5294588075658195 0 0 -1
1050 0 2 0.5897 9.817323123924837 13.773347972780023 8.074702166581451 0 -1 0
1351 0 1 -1.1794 1.396827135719197 18.345150867045316 4.252089983790995 0 -2 -1
270 0 2 0.5897 5.857727475289975 19.264286997846067 7.079467482077324 0 -1 -1
1832 0 2 0.5897 4.529073095629074 16.74094839368856 5.221317673074231 0 -1 -2
1000 0 1 -1.1794 0.600007261980475 19.462695964472513 8.260030610652118 1 -1 1
1352 0 2 0.5897 2.1810052904429087 17.920352040933984 4.5960554658423 0 -2 -1
1831 0 1 -1.1794 4.0611340409510905 17.531709377111813 5.337100882104137 0 -1 -2
1833 0 2 0.5897 4.3541366788232825 18.256882700975986 4.757157840266599 0 -1 -2
2062 0 1 -1.1794 2.92523770658406 17.994741052580512 7.705973493618086 0 -1 1
2063 0 2 0.5897 3.3680939467913618 17.742131697283792 6.913281756057309 0 -1 1
2064 0 2 0.5897 3.6184829469647575 18.44627690682582 8.21092310392139 0 -1 1
1001 0 2 0.5897 1.3815633777251768 18.95171184698623 7.951465467216155 1 0 1
1016 0 2 0.5897 2.1369000776294973 16.47048052621428 8.243725217328288 0 -2 1
814 0 1 -1.1794 12.115911366981194 17.96771680716169 6.7655415584164285 0 -3 -1
1303 0 1 -1.1794 6.591716883581077 17.767154799457426 7.477673951543 0 -2 -1
1304 0 2 0.5897 6.853626085971944 17.199703818403247 6.732979923941895 0 -2 -1
1305 0 2 0.5897 7.395081480363743 17.83652314741211 7.973925945777696 0 -2 -1
1736 0 2 0.5897 9.842360311734652 19.393903278883627 5.352938428175759 1 -1 2
1735 0 1 -1.1794 9.515358126358416 19.02388940475074 6.212067986736907 1 -1 2
816 0 2 0.5897 11.172599697952148 18.1329619820501 6.749538511769745 0 -3 -1
1737 0 2 0.5897 8.952532459379599 18.280883249981475 6.073665831663324 1 -1 2
1345 0 1 -1.1794 8.233475754089167 16.171089036590274 5.991749487514145 0 0 -1
825 0 2 0.5897 5.211503015503471 2.200487974709923 9.5257116610209 0 0 -1
1072 0 1 -1.1794 2.3385603325490867 1.0238130481102048 10.912157868931896 0 2 0
1535 0 2 0.5897 5.432687922283944 1.5417067606033201 11.559278846579602 0 2 -1
824 0 2 0.5897 5.551047617202976 0.7532412158085905 8.911660692055177 0 0 -1
823 0 1 -1.1794 5.597528968565148 1.2892359093543169 9.75015390340612 0 0 0
480 0 2 0.5897 3.0513288715682085 3.409639661858486 10.374028255702068 1 1 -1
1073 0 2 0.5897 1.614866624961445 0.7569936179633436 10.373246049963774 0 2 0
1074 0 2 0.5897 1.9438434543803444 1.4840358351772862 11.644575379418622 0 2 0
1534 0 1 -1.1794 5.29766854914917 1.5937533076316246 12.494106216527053 0 2 -1
1251 0 2 0.5897 0.5465766608412596 3.2951181939862546 10.426253189721812 1 2 1
303 0 2 0.5897 7.429586331663009 1.3825415828645866 9.55231344151238 0 1 1
1354 0 1 -1.1794 9.250182712757132 0.12391807531321666 11.808136262548548 0 3 -2
1355 0 2 0.5897 9.005365621910913 0.4425064385790683 10.968518845936819 0 3 -2
301 0 1 -1.1794 8.356455605698422 1.087290970393363 9.281864954318689 0 1 1
302 0 2 0.5897 8.771942621420429 1.9838519117628686 9.385351424288206 0 1 1
1139 0 2 0.5897 10.087230297553733 3.8708875039399597 8.688097848202244 0 1 -1
768 0 2 0.5897 12.050232909807038 2.558827822493406 11.413008029883473 0 -1 0
1138 0 1 -1.1794 9.239705781035067 3.7537228823732205 9.151906038035868 0 1 -1
766 0 1 -1.1794 11.611714109312596 3.309239952507634 11.93113205742155 0 -1 0
1527 0 2 0.5897 7.7947729134096875 3.7264480482286455 12.505772951812185 0 -1 0
990 0 2 0.5897 11.910921613870034 0.11414551132019393 12.1166915475982 1 2 0
1380 0 2 0.5897 1.1085080836026573 5.946150075994625 12.41674758751952 0 1 -1
883 0 1 -1.1794 5.879510933768481 7.027435269749358 8.608116165948148 0 1 -1
478 0 1 -1.1794 2.3100919620952762 4.019996070578268 10.2847803432766 1 1 -1
479 0 2 0.5897 2.361837003325613 4.663846556283937 11.032378046438769 1 1 -1
1770 0 2 0.5897 3.2091549085654787 5.125973102063973 8.76933080760428 0 1 0
635 0 2 0.5897 4.786856515291342 7.5732920852543595 11.4720157367424 0 0 1
885 0 2 0.5897 5.466419525656011 7.390605618977923 9.417916462312075 0 1 -1
2065 0 1 -1.1794 1.7428780423605665 7.463713531007187 9.93099084977541 0 1 -3
2066 0 2 0.5897 1.2694599652885605 6.67356376908228 9.665865426981073 0 1 -3
1447 0 1 -1.1794 5.666114222068179 4.016510113668186 10.037213625618472 1 3 -1
1449 0 2 0.5897 6.16209505337312 4.303664607046658 10.868869344997641 1 3 -1
1448 0 2 0.5897 6.094472259137406 4.58995423443162 9.355010195441562 1 3 -1
2067 0 2 0.5897 2.2605883881524216 7.735520944723817 9.195769857000636 0 1 -3
1995 0 2 0.5897 6.294895021151581 5.569206240711556 12.478227201979225 1 0 3
1610 0 2 0.5897 11.785047008084483 6.3371816943776995 10.145616457222934 0 1 -1
1609 0 1 -1.1794 11.892421387169117 6.9006369750497925 9.316207586241259 0 1 -1
129 0 2 0.5897 9.42190214066995 6.806647461939255 8.471762446598104 0 0 -2
1525 0 1 -1.1794 7.6469300618349125 4.566959262197584 12.046084619301269 0 -1 0
128 0 2 0.5897 7.941740674916176 6.679055387780664 8.906653230898083 0 0 -2
1140 0 2 0.5897 8.702990893499374 4.426089900986523 8.702116808943078 0 1 -1
1868 0 2 0.5897 9.839174606650348 5.341395009917211 10.521109071214537 0 0 2
1867 0 1 -1.1794 10.024237696427269 5.51873982144296 11.455061559276281 0 0 1
1526 0 2 0.5897 8.51999434874033 5.075530609593512 11.904144987292803 0 -1 0
127 0 1 -1.1794 8.830558128160078 6.798293656300009 9.21899732748952 0 0 -2
1611 0 2 0.5897 11.289260455122465 7.655643079110711 9.603088755546185 0 1 -1
2076 0 2 0.5897 8.458524995301957 7.586684509993338 10.913079767879559 0 -1 0
1869 0 2 0.5897 10.536077731330549 4.764545466514704 11.717034377971636 0 0 1
2248 0 1 -1.1794 3.5060488398401426 9.883892736551543 9.061716434457331 1 1 1
636 0 2 0.5897 4.058512776967918 8.714717012923911 10.67844278360922 0 0 0
634 0 1 -1.1794 4.887288098245725 8.348908637097965 10.934264653535362 0 0 0
2250 0 2 0.5897 3.650660830580724 10.746064876023766 9.48607172783776 1 1 1
591 0 2 0.5897 1.831767916010048 10.433375380766348 9.072761973532339 0 -1 0
589 0 1 -1.1794 1.069199710902808 11.086388234683387 8.981023385306514 0 -1 0
1246 0 1 -1.1794 1.6484832604088084 8.562925790229832 12.424360515240094 1 1 0
890 0 2 0.5897 5.862605731005804 10.080071565704769 11.445015916716473 0 1 2
1248 0 2 0.5897 1.6431360452264205 8.404658712651756 11.42116928142783 1 1 0
1827 0 2 0.5897 3.945023382587807 11.858927094897806 11.462624494968264 0 -3 1
1825 0 1 -1.1794 4.3378936141055195 11.77404347020922 10.595032771785764 0 -3 1
1247 0 2 0.5897 2.1746942169034407 9.389636880491375 12.483143455566536 1 1 0
712 0 1 -1.1794 7.535783700090375 11.988690846088534 8.370839587330762 1 0 1
889 0 1 -1.1794 6.683347695118235 10.33451432240659 11.851849627612454 0 1 2
891 0 2 0.5897 6.985835673613262 11.187205029816464 11.473914316553692 0 1 2
2074 0 1 -1.1794 8.728605652661457 8.109863315157172 11.693918150464757 0 -1 0
2258 0 2 0.5897 8.210884920490184 9.041468206729856 8.809785599182554 1 0 -1
248 0 2 0.5897 10.513319535119535 10.279500621748106 9.866501731451606 1 1 0
2075 0 2 0.5897 8.165411408983378 8.938978084823084 11.605596540632158 0 -1 0
249 0 2 0.5897 9.871543031799417 9.159074996428442 10.726153231678554 1 1 0
247 0 1 -1.1794 10.560386287128527 9.345056968739561 10.10553737748782 1 1 0
2040 0 2 0.5897 10.810583091287297 11.025405423726696 12.002985429613547 0 1 -2
229 0 1 -1.1794 10.995483907379652 11.987486302299022 9.692433772781442 1 0 -2
794 0 2 0.5897 11.118139924228615 8.153392324310754 12.216616216116162 0 2 -1
2038 0 1 -1.1794 10.109294832126798 11.568384399302978 12.44257914889082 0 1 -2
834 0 2 0.5897 1.0700140254502188 14.187796050792759 10.033072978767134 0 0 1
2210 0 2 0.5897 3.1463946335088235 14.376800750693457 9.172889843922507 1 0 1
2209 0 1 -1.1794 4.092377840756814 14.03200311712813 9.225571058610273 1 1 1
2124 0 2 0.5897 5.300074300364013 15.228512743480184 9.844887840358131 0 -1 -3
1826 0 2 0.5897 4.026513706866401 12.592999809895911 10.119266864757089 0 -3 1
833 0 2 0.5897 0.9543857235537635 12.596441389071641 9.906958664334644 0 0 1
1751 0 2 0.5897 1.3909220997687828 13.348506278771685 12.15722031644507 1 0 2
832 0 1 -1.1794 1.3976440449114471 13.35928886644272 10.367568019812792 0 0 1
2122 0 1 -1.1794 5.946586065020996 15.984106387713606 9.831514943516348 0 -1 -3
1015 0 1 -1.1794 1.5818871254621276 15.884648724890443 8.773314573871788 0 -2 1
80 0 2 0.5897 5.170075038038745 13.4561996422092 12.263355615479128 0 2 -1
1290 0 2 0.5897 8.752445334870863 12.25796369743729 11.513041958644685 0 0 0
506 0 2 0.5897 11.671630709308424 14.087488064358613 11.529976954755204 0 -1 0
1288 0 1 -1.1794 8.03249133075963 12.590913255567122 10.995189016828421 0 0 0
713 0 2 0.5897 7.621543445285667 12.227244059424983 9.362625057223326 1 0 1
1289 0 2 0.5897 7.937402250846095 13.514301725659193 11.396535827278827 0 0 0
611 0 2 0.5897 7.140937187038865 15.505260466400516 11.167388337315234 0 1 2
2266 0 1 -1.1794 10.334925133241804 14.574652311903854 9.806415726966028 1 1 0
610 0 1 -1.1794 7.874771597790931 15.28457847737028 11.72726837248887 0 1 2
231 0 2 0.5897 10.601135847133209 12.867351990622826 9.838553816534743 1 0 -2
2267 0 2 0.5897 9.581848200208896 14.808971605576456 10.33630951871865 1 1 0
2268 0 2 0.5897 10.854534072039316 15.41348440702169 9.82370049022403 1 1 0
230 0 2 0.5897 11.685017222216938 12.169445970713408 9.039570440720896 1 0 -2
1224 0 2 0.5897 1.1433718881137087 17.476158886600057 10.07282302517331 1 1 1
1222 0 1 -1.1794 1.2286705612985611 17.90241489501774 10.917379343288593 1 1 1
1733 0 2 0.5897 3.336785763206262 16.107199839765716 10.718669713817697 1 -1 1
631 0 1 -1.1794 4.441306914704526 18.906921095318484 10.22118169754882 0 0 -1
633 0 2 0.5897 3.918152178516183 19.675420436751292 10.509250561914623 0 0 -1
632 0 2 0.5897 4.065055556165218 18.140645259843232 10.619251296830171 0 0 -1
1732 0 1 -1.1794 3.4556301157909686 16.686651567745468 11.499396844698879 1 -1 1
1734 0 2 0.5897 2.5200477676831534 17.056484995294888 11.594878314352378 1 -1 1
2123 0 2 0.5897 5.703558226627345 16.504077891813683 9.032220603117793 0 -1 -3
1476 0 2 0.5897 5.983530987474443 18.714411527005065 10.92773601253908 1 -1 2
1223 0 2 0.5897 0.9100308480184081 18.768223364368882 10.757130218621416 1 1 1
992 0 2 0.5897 8.575489779149418 19.231543567728114 9.007722408202046 1 -1 -2
1356 0 2 0.5897 8.499000072696063 19.610650723527815 12.07885581007616 0 2 -2
857 0 2 0.5897 10.626226903658006 17.701220016358683 9.62833430258681 0 -1 -1
993 0 2 0.5897 8.16897736547109 18.15668952336625 9.85800569952933 1 -1 -2
991 0 1 -1.1794 8.84313752152233 18.304588832407926 9.227825530032131 1 -1 -2
1474 0 1 -1.1794 6.791596402888581 18.60647024863711 11.515690502892994 1 -1 2
1326 0 2 0.5897 10.294332355486333 17.350547182559136 11.640879923555383 0 -1 0
856 0 1 -1.1794 11.19385966823238 17.185356442749512 10.225621456007769 0 -1 -1
1475 0 2 0.5897 6.518518224618847 17.965949580792625 12.163770183382658 1 -1 2
989 0 2 0.5897 10.69577041173869 19.440549641365834 12.439171505709892 1 1 0
1325 0 2 0.5897 9.018280615757263 16.75477471137612 12.330535943583568 0 -1 0
1324 0 1 -1.1794 9.725298490446564 17.370955866184502 12.461357721506255 0 -1 0
858 0 2 0.5897 12.121114298580814 17.506282327386373 10.22533989866426 0 -1 -1
1740 0 2 0.5897 1.9247881182523567 3.456337973432221 13.16749870380435 1 1 -1
1536 0 2 0.5897 4.951272858414475 2.490036711641797 12.581614630956473 0 2 -1
1739 0 2 0.5897 2.1259388551236524 1.909522036674834 13.470872008629728 1 1 -1
1738 0 1 -1.1794 1.454123381840125 2.6117337575016957 13.078241510578708 1 1 -1
571 0 1 -1.1794 3.6273413023900347 0.8502950339761967 16.356514014928386 0 1 0
1046 0 2 0.5897 2.907584618053818 3.0704011688404025 15.547091882503057 0 1 1
1843 0 1 -1.1794 4.652943208354928 3.8282070651599582 13.714806020066268 0 2 -3
1844 0 2 0.5897 5.123305240172824 3.7816033900754262 14.566067577552374 0 2 -3
240 0 2 0.5897 4.0306582083437 0.7280265240173538 13.219999630237542 1 0 0
239 0 2 0.5897 3.397940964168386 0.7439487741848865 14.6630317622752 1 0 0
238 0 1 -1.1794 3.1509179928074804 0.6421786341332931 13.662418237225625 1 0 0
353 0 2 0.5897 6.137644011203982 0.07958999591217275 13.513478433286547 0 1 -2
1045 0 1 -1.1794 2.7585274189428004 3.7909769905958237 16.234267805913507 0 1 1
625 0 1 -1.1794 5.971915687626697 3.8475822488733105 16.305533195609538 0 1 0
361 0 1 -1.1794 0.5906161709237887 1.5535980824454991 16.472618853356305 0 3 0
572 0 2 0.5897 3.2678889459430174 0.0036435420151983357 16.63180814501406 0 1 0
1469 0 2 0.5897 7.65857321281759 1.9124847260489062 14.258594791169283 1 1 1
1468 0 1 -1.1794 8.301878507345485 2.1471491335443127 13.577247277516092 1 1 1
1470 0 2 0.5897 8.207316192193442 1.4341450984128326 12.909463196885143 1 1 1
2108 0 2 0.5897 11.311925872955756 0.8044365991910769 13.835901962702886 0 0 1
2107 0 1 -1.1794 10.80398404285164 1.5037085260244607 14.287179550060753 0 0 1
767 0 2 0.5897 11.45198004419644 3.1078574204375546 12.876142639003735 0 -1 0
2109 0 2 0.5897 9.902287850631152 1.6087191628975364 13.904807258085532 0 0 1
1491 0 2 0.5897 11.1676144067587 2.9785132079806975 15.42541879761124 1 1 -1
1401 0 2 0.5897 8.644580644862279 3.9118787068733374 15.100270280912868 0 0 -2
1489 0 1 -1.1794 11.686842307327613 3.7050971671726383 15.743838448009358 1 1 -1
279 0 2 0.5897 10.946490467821018 0.528606747327416 15.946420264726976 0 2 -1
223 0 1 -1.1794 8.607037275545892 2.3184426852855697 16.35867109615176 1 0 2
225 0 2 0.5897 8.864589019200185 1.3761202844397302 16.33365621413597 1 0 2
1378 0 1 -1.1794 1.8770459899300074 5.528694398442005 12.789467445591157 0 1 -1
1845 0 2 0.5897 4.890351377428599 4.761091149099489 13.37041528716679 0 2 -3
1993 0 1 -1.1794 5.634940494161646 6.212865842606505 12.735300797672217 1 0 3