LAMMPS data file via write_data, version 23 Jun 2022, timestep = 40000000

2268 atoms
2 atom types

0.47852149071153605 46.97217750926865 xlo xhi
0 20.047001 ylo yhi
0 20.857 zlo zhi

Masses

1 1.008
2 15.999

Atoms # full

1726 0 1 -1.1794 2.9525350211755503 1.5791766485279835 2.5176217710055626 1 1 2
1728 0 2 0.5897 3.441100899586151 1.2184284675087411 1.756132143387383 1 1 2
1727 0 2 0.5897 2.9519403130040205 2.5371638069262903 2.2504574094587326 1 1 2
830 0 2 0.5897 3.955888294768989 1.790149488564654 3.9229605203059426 0 4 -2
486 0 2 0.5897 0.9951515765481413 0.9503963434182827 3.4242417427359837 1 1 2
1745 0 2 0.5897 5.061698762096092 3.647284223994392 0.7955034960631674 1 4 1
139 0 1 -1.1794 4.270847284127981 0.7222183051049926 0.293070532482945 0 -2 1
484 0 1 -1.1794 0.7052978979421481 0.3807217092351574 4.166356546081769 1 1 2
310 0 1 -1.1794 0.5291378559643765 3.492114110840217 3.5327565789892037 0 0 2
126 0 2 0.5897 6.556199032108346 0.7165107020419591 2.224303796177262 0 -1 -3
124 0 1 -1.1794 7.1080578725812815 1.4802366384567232 2.1496359715389644 0 -1 -3
125 0 2 0.5897 6.54843053108937 2.275010655937873 2.213766008796018 0 -1 -3
1083 0 2 0.5897 8.661852221935954 2.7354728865412907 2.6665782604777184 0 -3 1
1081 0 1 -1.1794 8.911533562678128 3.589856976293545 2.2973822140277367 0 -3 1
2048 0 2 0.5897 10.301485568314119 0.807457909649133 2.7672869065313677 0 2 0
1286 0 2 0.5897 10.676785518726994 3.5999647852435577 3.4255231628981875 0 1 1
2102 0 2 0.5897 7.628475958594928 0.9430194620726106 0.5052621190067664 0 -2 0
1285 0 1 -1.1794 11.553858847166863 3.3429947529227277 3.6855062346679204 0 1 1
1032 0 2 0.5897 11.42262555542448 2.6099791319315675 1.0205120519352138 0 -2 0
1031 0 2 0.5897 11.372824460885445 1.1129784791701947 0.8292670674081519 0 -3 0
1082 0 2 0.5897 9.029667800995641 3.495968735954693 1.3397912478552374 0 -3 1
1030 0 1 -1.1794 10.845152278172744 1.9045011469759576 0.9287181584827594 0 -3 0
1287 0 2 0.5897 12.068798515237702 3.7250675516942846 2.965701163471401 0 1 1
391 0 1 -1.1794 3.1739545598660364 4.284830592497466 1.5099037760836256 0 4 1
1274 0 2 0.5897 5.193375389987685 4.354576824064218 3.141349364537914 0 2 -1
393 0 2 0.5897 2.495433883691096 4.706693580243203 0.9380375992771096 0 4 1
392 0 2 0.5897 3.232200502595742 4.797640801593357 2.361748785925983 0 4 1
799 0 1 -1.1794 5.469604337362177 6.525347464222925 0.8999108282481104 0 -4 1
612 0 2 0.5897 1.5884586017232345 6.768963811426837 1.6410155654140002 0 2 2
611 0 2 0.5897 3.1144616253797506 7.103000392106385 1.611493883229341 0 2 2
772 0 1 -1.1794 3.947058082448873 5.100777800715388 3.853258210629043 0 2 3
801 0 2 0.5897 5.443564619483155 5.660012942634731 1.2735211697919848 0 -3 1
800 0 2 0.5897 4.985999946823444 6.491504924547682 0.057176067926905244 0 -4 1
610 0 1 -1.1794 2.216111448632815 7.516895954884461 1.554009369477722 0 2 2
1273 0 1 -1.1794 5.977716230480693 4.07065402060098 2.6196823629279544 0 2 -1
774 0 2 0.5897 4.338852491941851 5.9379692601455245 4.096475105849869 0 2 3
1803 0 2 0.5897 0.723805247101886 4.939177217837868 2.5152036924038494 0 5 -1
1801 0 1 -1.1794 0.49562301569262623 5.764051306572424 2.035720247879511 0 5 -1
1275 0 2 0.5897 6.668588515006817 4.680164046047233 2.938168926644252 0 2 -1
1099 0 1 -1.1794 8.127345683318282 7.319963060528167 1.0156283349379414 0 -2 3
1101 0 2 0.5897 7.975367222192631 6.8777556036256975 1.8534901927922356 0 -2 3
1264 0 1 -1.1794 7.552804410864647 6.293373156328224 3.492830105073708 0 -4 2
1266 0 2 0.5897 8.353468489165511 6.232175524912603 4.032439303138572 0 -4 2
1265 0 2 0.5897 6.856043600455749 6.857426470025631 3.875661147427427 0 -4 2
1256 0 2 0.5897 10.021279620457955 6.458753629372294 0.05651054490971526 1 0 -1
1255 0 1 -1.1794 10.94990177810534 6.457677868065009 0.3305647739945118 1 0 -1
701 0 2 0.5897 10.64806295054136 5.809132093286049 3.968545675593092 1 3 0
1100 0 2 0.5897 7.413184092243879 6.99225603563038 0.45244316507590304 0 -2 3
282 0 2 0.5897 11.742438667196653 7.444519278335025 2.950245796078265 0 3 0
1485 0 2 0.5897 0.5064002850269317 10.514625408148405 1.8864689143656246 1 2 1
1829 0 2 0.5897 5.209182598585561 8.186331292715424 3.6828107906983654 0 -3 -3
2132 0 2 0.5897 2.219495041355735 8.648620811390813 3.002946650006333 0 -2 0
1147 0 1 -1.1794 5.3332879285037755 9.027864713519419 2.3171820963350993 0 2 2
1001 0 2 0.5897 3.8834408122638604 9.81740198381364 1.180440039755599 1 -1 2
1148 0 2 0.5897 5.725225795710005 8.537212902728612 1.5712937393666668 0 2 2
1000 0 1 -1.1794 3.239244822960373 10.473556751630248 0.8903349496835016 1 -2 2
1149 0 2 0.5897 5.722075431101817 9.922070134388456 2.1733074179627265 0 2 2
2131 0 1 -1.1794 2.3567123461085924 9.06189282560931 3.8720057334897677 0 -2 0
1376 0 2 0.5897 1.6348574762995831 9.698857847501516 0.15896679817019244 0 -2 1
1484 0 2 0.5897 1.2870976741133262 10.630517045867322 3.2340704662400213 1 2 1
1002 0 2 0.5897 3.5450430572481952 11.008783493890846 0.14310406825434466 1 -2 2
1375 0 1 -1.1794 0.653351330784466 9.578302673417921 0.17911569192844468 0 -2 1
1959 0 2 0.5897 3.6600932311879806 10.14406362042269 4.168151995965214 1 0 4
1483 0 1 -1.1794 0.5235726481122569 10.97049324348915 2.750990512833318 1 2 1
2004 0 2 0.5897 8.473757138481563 8.862967560015287 0.31778818544544735 1 1 0
1194 0 2 0.5897 9.904243079646127 8.893195104624544 2.260650225858228 1 1 0
1192 0 1 -1.1794 10.830514882015612 8.576476961760106 2.1161969338097952 1 1 0
1193 0 2 0.5897 10.887461254177088 8.059055528678625 1.3238754929720098 1 1 0
979 0 1 -1.1794 8.522755297466622 9.726309336342766 3.284102680750229 1 -1 -1
981 0 2 0.5897 8.082614404723797 10.266902571113937 2.6374072150267227 1 -1 -1
1630 0 1 -1.1794 6.727440953502967 11.36271003934666 2.049569891062792 0 0 0
3 0 2 0.5897 9.600367593153472 11.065379245676136 3.746042882168495 0 -2 0
1631 0 2 0.5897 7.1065276725430895 11.68598486448651 1.2260869750993881 0 0 -1
980 0 2 0.5897 7.946222842303798 9.325012352369647 3.984919566812806 1 -1 -1
2 0 2 0.5897 10.974878681489601 11.935636184918854 3.9965837434179896 0 -2 0
1 0 1 -1.1794 10.04370344257234 11.992924142794536 3.8417657623812955 0 -2 0
2002 0 1 -1.1794 8.747895433305906 9.752836497011593 0.08190067399723416 1 1 0
1779 0 2 0.5897 3.6771239136444955 12.357330309344867 3.351105907047187 0 -1 0
1778 0 2 0.5897 3.2832917752928727 12.477603458395873 1.9446444685582809 0 -1 0
1777 0 1 -1.1794 3.617681188520743 13.071073715495931 2.6425257020543045 0 -1 0
509 0 2 0.5897 4.8842519871333945 14.384262438657204 1.9824108568161707 0 -2 -1
1022 0 2 0.5897 2.530906364700444 13.998182750379394 3.534970999526527 0 1 -3
1021 0 1 -1.1794 1.8339472704075093 14.628357419585875 3.772919751946852 0 1 -3
508 0 1 -1.1794 5.330586716519098 15.240570998875071 2.168002910624398 0 -2 -1
510 0 2 0.5897 4.953029037146787 15.818944511167674 1.4671016829903045 0 -2 -1
2016 0 2 0.5897 1.9084853667691446 15.996869162578523 2.4406776881256347 1 2 3
807 0 2 0.5897 1.3283703171655117 13.536404768704648 0.09252395647888068 0 0 1
1632 0 2 0.5897 6.835175393493479 12.068679687898793 2.718138609864604 0 0 -1
29 0 2 0.5897 10.600075391486175 12.266581455189609 1.8116838002846987 0 -2 -2
1995 0 2 0.5897 6.915364520688285 15.13058874998148 1.613191300483436 1 0 4
1993 0 1 -1.1794 7.814655479908427 14.923107022065546 1.3080233593564679 1 0 4
1994 0 2 0.5897 8.380330120154285 14.930464718216648 2.106044086724499 1 0 4
30 0 2 0.5897 10.990182855044154 13.70433164305671 1.1184388268478376 0 -2 -2
28 0 1 -1.1794 10.514817935693179 12.845864882016556 1.0219885815302299 0 -2 -2
730 0 1 -1.1794 9.374113095626594 14.603604361260121 3.572981056433531 1 -3 0
1531 0 1 -1.1794 11.622277793155337 15.49755804746482 1.5552742722420707 0 -1 1
1533 0 2 0.5897 11.426317791057595 15.794382556063919 2.427505467125645 1 -1 1
732 0 2 0.5897 9.404737049024929 13.633979713345882 3.4735058587669663 1 -3 0
2014 0 1 -1.1794 2.226392129579806 16.70640776664877 1.873104634522274 1 2 3
306 0 2 0.5897 4.921824904522296 19.392398642528807 1.1457683524925255 0 0 2
304 0 1 -1.1794 5.355375855688705 18.945771128330197 1.8862992970350603 0 0 2
2015 0 2 0.5897 2.5513636820768886 17.365511933365813 2.543838087242514 1 2 3
305 0 2 0.5897 6.109482902774591 18.431163086793337 1.5256726474064677 0 0 2
8 0 2 0.5897 3.8446169315343592 19.058282897983734 3.064230456119552 0 1 -2
9 0 2 0.5897 2.4788259724377695 19.462488792838013 3.7204770383246184 0 2 -2
7 0 1 -1.1794 3.042783076018308 18.6890211595005 3.472656727596959 0 1 -2
107 0 2 0.5897 3.19771088988567 16.448480672012728 0.5351980703199789 0 -2 -2
20 0 2 0.5897 0.8749925921132857 17.458563645554744 1.049512081978705 0 -2 -1
2047 0 1 -1.1794 10.371457048172317 19.97699265508719 3.1672046501898943 0 1 0
2049 0 2 0.5897 11.290506757000355 19.667553635081482 3.1618391259514906 0 1 0
1700 0 2 0.5897 8.08744614493038 18.313814059737947 2.8296362750885447 1 -3 6
67 0 1 -1.1794 7.802850207507003 17.682267236108625 1.1806980127086795 0 3 -2
68 0 2 0.5897 8.428677421228965 17.993388034371137 0.5063119868480527 0 3 -2
69 0 2 0.5897 7.878409579687161 16.730508556390106 1.1467417305416567 0 3 -2
1701 0 2 0.5897 9.021208957253812 18.842641389064006 4.001293885148424 1 -3 6
1699 0 1 -1.1794 8.106636632024635 18.63414401218008 3.7780413437720233 1 -3 6
549 0 2 0.5897 10.439469734737 18.955833172061116 0.022046015186449597 0 -4 2
829 0 1 -1.1794 4.445131142462127 1.7086450888767168 4.760721666407788 0 4 -2
312 0 2 0.5897 1.099414592905139 3.384792951763664 4.300245387207425 0 0 2
854 0 2 0.5897 3.205026177501907 1.113775246654607 6.17033482071482 0 -1 -1
853 0 1 -1.1794 2.276433859736974 1.0829014566629176 6.476164293591389 0 -1 -1
831 0 2 0.5897 5.012961825969175 0.8922806809111977 4.69511129671491 0 4 -2
1869 0 2 0.5897 5.23687064696895 1.9904114507533952 8.280530097407775 0 2 0
1037 0 2 0.5897 5.235045917386827 2.780245306000063 5.962765262271684 0 2 0
855 0 2 0.5897 1.7612814357500093 0.7270491264899426 5.745675584928832 0 -1 -1
1036 0 1 -1.1794 5.6729720345659596 2.980665987237568 6.827220191810897 0 2 0
636 0 2 0.5897 1.8964253660561379 2.85247776589392 6.456658433791247 0 1 0
634 0 1 -1.1794 1.930423877227335 3.6863043174770738 5.991590359482276 0 1 0
1706 0 2 0.5897 1.743122471688548 0.2327572921072351 8.158927881271943 1 1 4
1337 0 2 0.5897 8.170640475096409 0.583905966943105 4.471222307143567 0 0 -3
1338 0 2 0.5897 8.194352650521298 2.007383836024512 5.008286516864088 0 0 -3
1336 0 1 -1.1794 8.486162140067398 1.1333624689050594 5.203374133540808 0 0 -3
1038 0 2 0.5897 6.633108715983133 2.9189343315044733 6.728138086131273 0 2 0
2259 0 2 0.5897 11.097999420464328 1.964421112049462 7.755469236498744 1 0 0
1011 0 2 0.5897 8.127563833140414 0.2670429196739635 8.289170987721842 0 1 -2
1004 0 2 0.5897 10.511673171283867 1.1339774490543533 5.675554121180108 1 1 0
1003 0 1 -1.1794 11.299635516055996 0.9387157020739728 6.1391828359331635 1 1 0
976 0 1 -1.1794 8.277301762764392 3.9044526812562133 5.685278909623687 1 0 0
977 0 2 0.5897 8.650469694132346 3.9485594352166884 6.547578925106312 1 0 0
1560 0 2 0.5897 12.012803928543285 3.5803499778470402 6.05493941690128 0 -1 0
1010 0 2 0.5897 8.21710534949046 0.2085453649843414 6.732332033907284 0 1 -2
1005 0 2 0.5897 12.077765639264255 1.0476330693459606 5.548990406307837 1 1 0
277 0 1 -1.1794 8.628046616587104 3.7519453213878253 8.198005029432506 0 0 -2
1828 0 1 -1.1794 5.15491803358545 7.48922659627221 4.40271035416623 0 -3 -3
635 0 2 0.5897 1.5674335358909701 4.470612543549193 6.461207742305728 0 1 1
773 0 2 0.5897 3.68278330934996 4.68939142210977 4.685466751260268 0 2 3
2241 0 2 0.5897 3.1974167219013623 7.121438284677709 6.441563803270464 1 1 1
1308 0 2 0.5897 4.817794625387444 4.8309921590476534 6.684090853586456 0 -2 0
1306 0 1 -1.1794 4.525551763999993 5.671402394876944 6.993605915859816 0 -2 0
2240 0 2 0.5897 1.6972122509014589 6.967941360088686 6.467445878146736 1 1 1
1307 0 2 0.5897 4.076780461727381 5.575231341249648 7.8555706785545425 0 -2 0
2239 0 1 -1.1794 2.383412406238302 7.606173556951144 6.203588132661297 1 1 1
1830 0 2 0.5897 5.32448090265843 7.977295853137553 5.210104028543704 0 -3 -3
361 0 1 -1.1794 0.5068226310389861 5.8909016894269035 6.623774246775425 0 4 1
1455 0 2 0.5897 6.36394948240883 6.221322191723188 7.377950630245797 1 0 -1
978 0 2 0.5897 8.80861192754886 4.578600651460517 5.161513588063236 1 0 0
1454 0 2 0.5897 7.245064104116143 5.585946353682079 6.370857415964755 1 0 -1
1453 0 1 -1.1794 7.246583756942721 6.351320412290729 6.994428424102416 1 0 -1
700 0 1 -1.1794 9.996903228470336 5.866142047720666 4.626423487390648 1 3 0
702 0 2 0.5897 10.28659153973532 6.464323412532744 5.3080149768817675 1 3 0
1121 0 2 0.5897 10.135964285843613 7.911091674910943 7.14618768754988 0 -1 -3
1310 0 2 0.5897 7.789602528476455 7.84656973378046 6.200695233287262 0 2 0
1120 0 1 -1.1794 10.627949837105108 7.899566344361285 6.320778755390161 0 -1 -3
507 0 2 0.5897 8.984706551737338 6.256286760812879 8.119173401906242 0 0 1
1957 0 1 -1.1794 4.034663241880824 10.941230366755132 4.468524022550636 1 0 4
1958 0 2 0.5897 4.825170277721503 10.782553655225872 4.9839516361100635 1 0 4
2133 0 2 0.5897 2.403777438423925 8.352831542220782 4.575549532144598 0 -2 0
1371 0 2 0.5897 2.768895422215207 8.95743013508406 7.376295694063634 0 1 2
1370 0 2 0.5897 2.6416473115515715 10.481695849894548 7.434245488742607 0 1 2
1369 0 1 -1.1794 2.978996957693382 9.682036411632952 7.92748338094025 0 1 2
2234 0 2 0.5897 3.148459789989463 11.691787833380083 6.019493170449781 1 2 -2
1653 0 2 0.5897 6.286621026360632 10.699972051188123 6.8626774961599395 0 2 -1
2233 0 1 -1.1794 2.5801734086073753 11.986670122260245 6.773746368691674 1 2 -2
1643 0 2 0.5897 4.6872038067120165 10.002786978422048 8.328565354819629 0 -1 1
1651 0 1 -1.1794 6.451042717000681 10.595942119904475 5.9117728840673 0 2 -1
1652 0 2 0.5897 6.9867778822351685 9.751372062658099 5.793494710095611 0 2 -1
1309 0 1 -1.1794 8.136712973697382 8.505158037383609 5.5857450598077785 0 2 0
1311 0 2 0.5897 9.14378684997901 8.33744951006221 5.530500380887954 0 2 0
1122 0 2 0.5897 11.201746462660482 8.713133996479796 6.438383252505285 0 -1 -3
1080 0 2 0.5897 11.825535159111435 11.305427574545805 7.0042164334059525 0 1 -1
1023 0 2 0.5897 1.3263271265606913 14.160247938821197 4.394053553435132 0 1 -3
2235 0 2 0.5897 1.692083289501619 12.232027613325876 6.419584840236523 1 2 -2
1557 0 2 0.5897 2.6351739355986865 15.7485010148432 4.733255632454896 0 1 0
1973 0 2 0.5897 5.052963298863203 13.965896765382285 7.263373513738735 1 -2 0
1972 0 1 -1.1794 4.947190847109947 13.450433198875073 8.157956224497863 1 -2 0
1297 0 1 -1.1794 5.287225641066388 14.8989484101161 5.891096958010876 0 -2 -1
1299 0 2 0.5897 4.588459110500958 15.471492665972562 5.5120094765787355 0 -2 -1
1298 0 2 0.5897 6.0829727795887765 15.453795100284175 5.849347362879562 0 -2 -1
1974 0 2 0.5897 5.117546747334271 12.509438991172843 7.993064610827897 1 -2 0
1136 0 2 0.5897 10.806423527902647 15.689780149923166 4.325364241097672 0 -1 -5
2127 0 2 0.5897 6.773853473847268 12.206759210894484 4.905149368112589 0 2 -4
1078 0 1 -1.1794 11.86376154186918 12.22034344247957 6.761782957581623 0 1 -1
2126 0 2 0.5897 6.354113268899302 13.63177263794503 4.617045459744329 0 2 -4
2125 0 1 -1.1794 7.080991138610471 12.971113206740103 4.478325927530684 0 2 -4
1789 0 1 -1.1794 9.153322184500784 12.87966627347894 6.707902525207712 0 0 1
1790 0 2 0.5897 8.719898945611524 12.652414881897771 5.847500491199203 0 0 1
1791 0 2 0.5897 10.077362627615381 12.620181905775908 6.562877070541107 0 0 1
731 0 2 0.5897 8.718934325183174 14.72903622261188 4.294094638258877 1 -3 0
728 0 2 0.5897 8.557420137006476 14.219467892344044 7.753733393900717 1 -2 0
727 0 1 -1.1794 8.148528796509359 15.089464382072736 7.875900775658374 1 -2 0
1556 0 2 0.5897 3.0964568491453903 17.250913381795336 4.752178302739292 0 1 0
1555 0 1 -1.1794 3.2574896731651735 16.382218406011432 5.173092949963466 0 1 0
1048 0 1 -1.1794 5.703624657397851 19.212249221200985 5.034423934716461 0 -1 0
1049 0 2 0.5897 5.133111663244335 18.50982195606055 4.761830493394233 0 -1 0
816 0 2 0.5897 2.990851628041754 16.39033646392219 6.9295542689618435 0 -5 -2
1763 0 2 0.5897 5.5289888307266475 19.268488576242422 7.144613685485284 1 -1 0
1762 0 1 -1.1794 4.838173184879706 18.94598289626469 7.781734795102349 1 -1 0
815 0 2 0.5897 3.4430618417465775 17.443350446730104 7.820170487000394 0 -5 -2
814 0 1 -1.1794 2.8104233279932145 16.695805227175704 7.80866926524627 0 -5 -2
1764 0 2 0.5897 4.562581880132435 19.76649842929612 8.155744217233678 1 -1 0
1135 0 1 -1.1794 11.506108798247858 16.35939053946049 4.233066893568579 0 -1 -5
1137 0 2 0.5897 11.425139940247655 16.961315984652163 4.951829582027713 0 -1 -5
1050 0 2 0.5897 6.567547101584232 18.888895216673603 4.741819515387886 0 -1 0
1009 0 1 -1.1794 8.122057465273151 19.721260569229127 7.540081558895671 0 0 -2
248 0 2 0.5897 7.612216738519006 17.059149081238626 4.708088935812656 1 -1 -2
247 0 1 -1.1794 7.636705176606895 16.211673722880988 5.2211873798100115 1 -1 -2
249 0 2 0.5897 8.125042993049707 16.457905783593045 6.049887221018683 1 -1 -2
291 0 2 0.5897 10.710759111967235 17.662128910871246 6.856245317734217 0 -3 -1
223 0 1 -1.1794 9.534445992971202 17.320863950237413 8.089192921408053 1 -4 1
290 0 2 0.5897 11.209705355649085 19.111392315548862 6.223348774213107 0 -3 -1
225 0 2 0.5897 8.925665815566651 18.08908515303262 7.991929671112889 1 -4 1
224 0 2 0.5897 9.030846072788034 16.525269643932702 8.18673360228974 1 -4 1
289 0 1 -1.1794 11.232700299704216 18.134570307205635 6.158663819665596 0 -3 -1
1867 0 1 -1.1794 4.943191950566809 1.3409948843966617 8.971124383732798 0 2 0
1868 0 2 0.5897 4.835844560221795 1.9549420537433462 9.720194713783444 0 2 1
2172 0 2 0.5897 4.66500517583357 0.354643940659796 10.599407383917054 0 0 0
2139 0 2 0.5897 1.136556325199153 0.8776387425983824 10.335260458893103 0 0 -1
2138 0 2 0.5897 1.5564216079628872 1.1689943776624565 11.813395212521245 0 0 -1
2245 0 1 -1.1794 5.245581080884122 3.0287625603150636 11.210034483304733 1 -1 1
2137 0 1 -1.1794 0.8642386246525677 1.3478826649528577 11.100823162512919 0 0 -1
2063 0 2 0.5897 1.4130484122267386 2.8381684585137004 10.477515154772817 0 -5 2
2246 0 2 0.5897 4.60300585478666 3.4455356700535105 11.768938262882575 1 -2 1
2247 0 2 0.5897 5.768325454536591 3.746787339193672 10.864132999416029 1 -1 1
2062 0 1 -1.1794 1.769657423343755 3.7186273838382684 10.252839469263623 0 -5 2
347 0 2 0.5897 3.4818467337452828 1.0168325773217126 12.423255191874322 0 1 5
2258 0 2 0.5897 11.771871436194978 2.793740419768774 8.898307863937188 1 0 -1
2257 0 1 -1.1794 10.923658681126913 2.5807753259281525 8.448203621975724 1 0 0
278 0 2 0.5897 9.386801406727391 3.2144332572652363 8.480619458532622 0 0 -2
195 0 2 0.5897 8.746504814818973 1.3810211439155664 10.742266869947585 1 2 0
193 0 1 -1.1794 8.7826087257473 0.9311721681380662 9.922342603379818 1 2 0
194 0 2 0.5897 9.672784457966568 1.1582434168123694 9.58830589674057 1 2 0
1006 0 1 -1.1794 8.795306737783521 2.80771450252826 12.060481039066104 1 -1 -2
1008 0 2 0.5897 9.675003571818987 3.089513255962398 11.751641638537345 1 -1 -2
2143 0 1 -1.1794 12.056360178515598 0.04358278244769459 11.840050701423957 0 0 0
2064 0 2 0.5897 1.457001115594319 4.281182712750731 10.930501618854226 0 -5 2
257 0 2 0.5897 2.6718068759234264 6.815743978640393 9.498917871506023 0 -2 -2
256 0 1 -1.1794 3.1620966455432233 5.964210521436446 9.239751636742918 0 -2 -2
258 0 2 0.5897 2.8880446329146783 5.0912364293552494 9.560709409930142 0 -2 -2
2030 0 2 0.5897 4.8894876231051665 7.414351923444372 9.227484165259371 0 -2 -2
2029 0 1 -1.1794 5.791791061040175 7.49808252201573 9.224758577702444 0 -2 -2
2081 0 2 0.5897 2.9095207626665527 4.61454478984023 12.288065758331335 0 1 1
845 0 2 0.5897 6.222008478762256 5.760716881652435 9.59897587722652 0 -1 -3
1503 0 2 0.5897 0.5414006706429257 7.145785617567363 11.671219872856382 1 1 -1
279 0 2 0.5897 8.24378266268255 4.146459210210554 8.95706456298725 0 0 -2
846 0 2 0.5897 7.238873777217075 5.420408547148681 10.651505221548247 0 -1 -3
844 0 1 -1.1794 6.819890519189982 5.076552959840147 9.916908268806353 0 -1 -3
505 0 1 -1.1794 9.39545576271063 6.937346350552574 8.641235922598842 0 0 1
506 0 2 0.5897 8.715559698928194 7.432257777414626 9.088523445759538 0 0 1
769 0 1 -1.1794 10.540595196385834 4.866404425622663 11.105581235725909 0 -5 5
771 0 2 0.5897 10.691673306970655 4.922551577578099 10.16033483611427 0 -5 5
2225 0 2 0.5897 11.043103436875628 7.230357986385456 8.983244655450948 1 1 0
765 0 2 0.5897 8.654915191284669 6.438072109912098 11.96916945102249 0 0 -4
763 0 1 -1.1794 8.061047896540664 5.746315506288344 12.233554960496141 0 0 -4
764 0 2 0.5897 8.533888678482421 4.973799267388215 12.417121176674055 0 0 -4
770 0 2 0.5897 11.412947385777978 5.2252383722491755 11.475553666333756 0 -5 5
2224 0 1 -1.1794 11.968763833191721 7.525475047637056 9.134724474011893 1 1 0
2031 0 2 0.5897 6.130062236493941 8.20176442988029 9.819002497434928 0 -2 -2
1545 0 2 0.5897 1.275126421637935 11.575545829407787 9.62495217837637 0 1 1
1813 0 1 -1.1794 2.754383771898098 8.480537727895312 10.258056514853559 0 0 -2
1815 0 2 0.5897 1.8484297754149077 8.581357530095858 10.535214256102536 0 0 -2
1814 0 2 0.5897 2.7942770353427373 8.946660274514473 9.373914369548574 0 0 -2
1530 0 2 0.5897 5.14966700104119 8.044643585389782 12.440898501630084 0 -1 2
497 0 2 0.5897 2.112958550996856 10.246646974916317 11.871869967478004 1 3 3
1529 0 2 0.5897 4.5271487357686 9.2784692507683 11.594412903228214 0 -1 2
1528 0 1 -1.1794 5.3605531243514 8.913137295543471 11.958557483951717 0 -1 2
1642 0 1 -1.1794 5.444136704378628 10.534809592184013 8.583266204058221 0 -1 1
1644 0 2 0.5897 6.238094844265224 10.022243588810424 8.759599107360815 0 -1 1
496 0 1 -1.1794 2.1414786639882504 11.065689966510622 11.365419811875846 1 3 3
498 0 2 0.5897 3.053322146552596 11.135626753926033 11.159976774873822 1 3 3
1863 0 2 0.5897 5.251263365426929 11.235010672152429 10.21771321605072 0 -3 2
1861 0 1 -1.1794 4.7967164492300975 11.18480472786086 11.071725151251716 0 -3 2
1862 0 2 0.5897 4.942117173718419 11.990512907772095 11.577129903268226 0 -3 2
1247 0 2 0.5897 9.16230340906778 11.933162318387748 8.372572059760532 1 3 1
1809 0 2 0.5897 10.147047842523705 8.261134171725361 11.437206340432128 0 5 0
1807 0 1 -1.1794 9.321076853012105 8.26455429060639 11.949653350023212 0 5 0
97 0 1 -1.1794 7.810643951683304 9.351592290019832 9.759968583385055 0 -1 -2
99 0 2 0.5897 7.801219224877164 9.02788784000036 10.654536717770135 0 -1 -2
1246 0 1 -1.1794 9.284075380612133 11.540530800166557 9.214620392662514 1 3 1
98 0 2 0.5897 8.626145712847164 9.846484912955672 9.738351473338545 0 -1 -2
1052 0 2 0.5897 10.979735871609142 10.740080335666777 9.767101230224108 0 2 2
1051 0 1 -1.1794 11.414197016518356 10.226658615562183 10.482154492109897 0 2 2
858 0 2 0.5897 11.62949837532382 11.381943414717476 11.706537262393418 0 -2 0
1248 0 2 0.5897 8.692871147582984 11.971657374776044 9.862302177709923 1 3 1
2072 0 2 0.5897 3.135891499567961 13.543322215893115 8.86846724579453 0 5 -2
2071 0 1 -1.1794 2.4346343458093056 14.138645522313439 9.110594654074252 0 4 -2
2073 0 2 0.5897 2.5481303298511 14.937325071744336 8.596438721367937 0 4 -2
644 0 2 0.5897 2.56574242346371 15.056064723350016 10.700732457814029 0 -2 -1
643 0 1 -1.1794 2.712630519311751 15.252916880574002 11.63034810133927 0 -2 -1
1499 0 2 0.5897 2.0751174822929133 14.04085872836792 12.429737950901536 1 3 -1
1500 0 2 0.5897 1.7787312101742747 12.63543343633114 12.15815389110316 1 3 -1
65 0 2 0.5897 4.218268206150965 14.277838427572549 12.176966519864948 0 -2 -2
64 0 1 -1.1794 4.977176801745024 13.708365548683673 12.43841587236725 0 -2 -2
1383 0 2 0.5897 5.648121925284975 14.540287928562059 9.32533942768334 0 4 -1
1381 0 1 -1.1794 6.194822501533083 15.082323498416855 9.970583869023887 0 4 -1
1382 0 2 0.5897 5.938209644959623 15.991928898663785 9.879671248193718 0 4 -1
898 0 1 -1.1794 11.564639567189277 14.346762110225198 10.396971555677318 0 2 1
267 0 2 0.5897 10.044934103063888 15.712641105330734 10.81991155190097 0 0 -2
899 0 2 0.5897 11.679191577676704 13.585360422258697 11.027037057100502 0 2 1
1368 0 2 0.5897 7.491536951791728 13.764234913667801 10.865604084081271 0 -1 -1
1366 0 1 -1.1794 7.900826719017631 12.980370714484001 11.239616880138762 0 -1 -1
1367 0 2 0.5897 7.2114358625986865 12.645937763598518 11.835643354783057 0 -1 -1
729 0 2 0.5897 7.423911196604039 14.931180413869463 8.564887300412916 1 -2 0
856 0 1 -1.1794 11.837105450323225 12.229526328036972 12.225883785335183 0 -2 0
321 0 2 0.5897 1.1119295839352783 16.965119319121893 8.351555397564688 0 0 -1
2170 0 1 -1.1794 4.302508307526813 20.021575693442003 11.41293249467502 0 -1 0
1705 0 1 -1.1794 1.3733126442950327 19.808105699741212 8.942218904602694 1 0 4
2171 0 2 0.5897 3.6772602148771525 19.324737916758586 11.159295352489943 0 -1 0
645 0 2 0.5897 2.693922092157013 16.2263986308625 11.558895825573849 0 -2 -1
1240 0 1 -1.1794 5.868392367269558 17.672562794495466 10.025590250822244 1 0 1
1242 0 2 0.5897 5.374162845990371 17.753726711155974 10.819260103484783 1 0 1
1241 0 2 0.5897 5.415580870996253 18.10960506530917 9.284738995787654 1 0 1
1820 0 2 0.5897 1.6926399453436078 17.924102508763898 11.318984727458297 0 2 2
1821 0 2 0.5897 2.2048758245094677 18.63451389028888 10.144316794662426 0 2 2
1819 0 1 -1.1794 2.541427610283439 18.020096610752272 10.832105826544762 0 2 2
2145 0 2 0.5897 11.830196252959304 19.51677953620202 11.090975943671342 0 -1 0
265 0 1 -1.1794 9.785386912830377 16.44482235619743 11.389012490393464 0 0 -2
266 0 2 0.5897 9.263874203953046 17.10797529799268 10.890404723956658 0 0 -2
2237 0 2 0.5897 8.195284770901914 19.333053395757222 10.852587930872653 1 -2 2
2238 0 2 0.5897 7.2767048688002385 18.163000313571036 10.734921776709356 1 -2 2
2236 0 1 -1.1794 8.088066614615077 18.430718360652406 11.189583834024587 1 -2 2
488 0 2 0.5897 11.218110377185068 17.563877583930147 8.913003135495288 1 0 1
487 0 1 -1.1794 11.963348429880483 17.86931551714702 9.407649222166514 1 0 1
1775 0 2 0.5897 0.6418174843640491 3.1044540743281206 14.353408784439234 0 0 2
737 0 2 0.5897 6.171591661308989 2.3102689908376366 12.716404024510643 1 5 -1
348 0 2 0.5897 2.8404265299659137 1.252575840755726 13.797462514559838 0 1 5
346 0 1 -1.1794 2.8272768670972517 1.5243584718255125 12.899930359253904 0 1 6
2082 0 2 0.5897 3.0830732357197967 3.3489492979966657 13.131327631913909 0 1 1
738 0 2 0.5897 6.14162353213423 2.9008507352801844 14.124065053044136 1 5 -1
102 0 2 0.5897 2.759751665006217 3.3105026601069394 16.015136457359006 0 -1 1
100 0 1 -1.1794 2.029413887457342 3.7319991052726924 15.554874187163678 0 -1 1
1007 0 2 0.5897 9.014060662943496 2.309923983783606 12.898490075063147 1 -1 -2
597 0 2 0.5897 11.751556048635145 0.10881967573581589 14.943229875506038 0 -1 2
2119 0 1 -1.1794 6.507994468697757 3.914312497424503 15.833953272466092 0 1 0
2121 0 2 0.5897 6.594588453448556 3.27782337548339 16.512347440320436 0 1 0
1236 0 2 0.5897 11.549388875337556 3.318335777253156 12.538644660769085 1 0 2
736 0 1 -1.1794 6.486345037933752 2.147128664807053 13.606726697788787 1 5 -1
1196 0 2 0.5897 6.366448447895508 0.34665600383563494 13.703272910295256 1 5 -1
1960 0 1 -1.1794 9.304442294782936 1.8342253193270546 14.595849211855253 1 1 0
1961 0 2 0.5897 8.414130359671121 1.93515400782352 14.939243064637873 1 1 0
1962 0 2 0.5897 9.833803501133753 2.5183534905845466 15.033428827362423 1 1 0
2230 0 1 -1.1794 11.36731188107893 3.617140758831483 15.040273500835122 1 1 -1
32 0 2 0.5897 9.93427926895896 0.35883201891842936 14.299765090583005 0 -1 0
384 0 2 0.5897 1.5677430237200751 6.6186037226950125 15.60828791726447 0 6 -4
2080 0 1 -1.1794 3.4627156268107675 4.184080543788844 12.918125138502706 0 1 1
132 0 2 0.5897 4.794472752804161 5.601528941163713 13.367595851713883 0 -1 -1
130 0 1 -1.1794 5.4061164910088575 6.344315323444839 13.512248947785187 0 -1 -1
101 0 2 0.5897 2.394066866369889 4.48084360841688 15.028413263439779 0 -1 1
383 0 2 0.5897 2.966977275501233 6.997124079439147 15.10596907517871 0 6 -4
382 0 1 -1.1794 2.1963660314463556 6.387847953971265 14.893754837271253 0 6 -4
2120 0 2 0.5897 5.815506730762028 4.604869342154293 16.075191748896252 0 1 0
718 0 1 -1.1794 0.7842441245378522 5.49274049680364 12.782703514255665 1 3 1
719 0 2 0.5897 1.266257635297021 5.9283188342716935 13.488375367499986 1 3 1
2057 0 2 0.5897 12.029958390396391 6.789733954417014 15.831537402301562 0 -1 -1
2232 0 2 0.5897 11.421449420225251 4.075712451969541 15.909028343031975 1 1 -1
131 0 2 0.5897 6.2996348831854 6.120054385341512 13.205295197154992 0 -1 -1
2107 0 1 -1.1794 11.188956495213436 6.289189802429022 14.134742021818182 0 -1 1
2108 0 2 0.5897 11.547078108744621 6.837320688904483 13.394654662114704 0 -1 1
2231 0 2 0.5897 11.20319181681851 4.420734602205713 14.465617220422068 1 1 -1
1604 0 2 0.5897 8.01014083675916 4.974965805827672 15.911763858173204 0 0 0
1603 0 1 -1.1794 8.752866683111458 5.645863906843462 15.755627629461316 0 0 0
1605 0 2 0.5897 8.39143994448337 6.545784807129542 15.754822990348856 0 0 0
2109 0 2 0.5897 10.256589949592202 6.4726073535026325 14.338221235171472 0 -1 1
324 0 2 0.5897 0.9354592665560532 8.887933867881108 13.472676415242743 0 2 0
1577 0 2 0.5897 4.772854545514633 8.349277905637472 15.150618307165361 0 -2 -2
1576 0 1 -1.1794 4.308789844919906 8.022312974404043 15.93438550682032 0 -2 -2
322 0 1 -1.1794 1.8186054856605585 9.178640154592406 13.378430661222685 0 2 0
1578 0 2 0.5897 3.798908443231137 8.802321093663826 16.15610451683886 0 -2 -2
323 0 2 0.5897 1.8805839343415285 9.988331139242318 13.842189807412572 0 2 0
318 0 2 0.5897 3.6658376268550885 11.483395343639764 14.514435377009432 0 -1 3
316 0 1 -1.1794 2.747630313697987 11.34722321451319 14.694480310871345 0 -1 3
577 0 1 -1.1794 5.5935453603881555 11.752914728560949 15.3074123599187 0 3 -1
579 0 2 0.5897 5.96915357336982 11.065624660654022 15.878340453447564 0 3 -1