LAMMPS data file via write_data, version 23 Jun 2022, timestep = 11354000

2268 atoms
2 atom types

0.6259192174850519 46.824779782497174 xlo xhi
0 20.047001 ylo yhi
0 20.857 zlo zhi

Masses

1 1.008
2 15.999

Atoms # full

462 0 2 0.5897 1.7546286891321325 3.189504983524781 3.500817782029375 1 2 0
460 0 1 -1.1794 1.2697163348885703 3.5176777552098484 2.7265414221794497 1 2 0
2107 0 1 -1.1794 5.200551308173368 0.5508029052875459 3.869611230197951 0 0 1
461 0 2 0.5897 0.7636061447480296 2.781589640810109 2.34925527246352 1 2 0
313 0 1 -1.1794 2.4612997811225448 0.6869951740414735 1.9369019367717373 0 -1 0
1271 0 2 0.5897 4.756563106815542 2.1246352361097416 3.0650694687905107 0 0 1
1270 0 1 -1.1794 4.6375219687463085 3.024766336402204 2.7562100185195235 0 0 1
315 0 2 0.5897 1.8059917628386233 0.34938467052827893 2.5369993305193237 0 -1 0
501 0 2 0.5897 3.785172647254941 3.279207912908398 0.7696892126624383 1 1 0
1272 0 2 0.5897 4.914315134425811 3.581917940543289 3.458601903504907 0 0 1
1079 0 2 0.5897 2.4053622621895183 0.5568910442593556 0.05801847777894397 0 -2 2
2250 0 2 0.5897 6.407707458624474 2.5353270495045925 1.9543925403374331 1 1 1
1231 0 1 -1.1794 10.871821271890564 0.6363607013742402 1.976258707856 1 1 -1
2248 0 1 -1.1794 7.002637626488582 2.0175130801832366 1.3738944147656427 1 1 1
1401 0 2 0.5897 10.460102525524995 2.0428832855980006 3.261828044787082 0 1 -1
2249 0 2 0.5897 7.775627619735273 2.5753764358100812 1.261204694514862 1 1 1
2079 0 2 0.5897 7.469064576491961 0.5791171886673749 2.346282373471412 0 0 0
1268 0 2 0.5897 8.951310049891564 3.9143896669832405 3.64349869787639 0 0 1
1570 0 1 -1.1794 9.700136401483578 2.7336571537066745 0.7571829129307105 0 -1 0
1571 0 2 0.5897 10.341417518840952 3.360755297637944 1.021142848818919 0 -1 0
1572 0 2 0.5897 9.947816809502672 1.8373820932676233 1.039604449826996 0 -1 0
1233 0 2 0.5897 11.802926750124627 0.7911653545773168 1.8202118426661937 1 1 -1
1399 0 1 -1.1794 10.034142259267508 2.4244958337765583 4.004152791159346 0 1 -1
2069 0 2 0.5897 1.6928719023816912 5.034303740449039 2.4821042165906357 0 -2 0
2070 0 2 0.5897 2.72515910719845 6.049761997760291 3.040314582366859 0 -2 0
2068 0 1 -1.1794 1.9514248712579423 5.99166280765991 2.500663011976865 0 -2 0
1352 0 2 0.5897 5.018127851118585 7.200909517485703 3.084989082026961 0 -1 -1
1351 0 1 -1.1794 4.070430449476644 7.396822395166877 3.1765524440424127 0 -1 -1
2247 0 2 0.5897 3.1583862522466943 6.531681063557208 1.0450330855896275 1 0 2
519 0 2 0.5897 0.8375323752167468 6.6435188129844285 3.582979624142262 0 -1 2
236 0 2 0.5897 0.6935627296853916 7.284104610247229 1.0857563719317072 1 0 0
1337 0 2 0.5897 5.2803243826655235 4.72993070188251 0.7793963037101248 0 1 -4
2245 0 1 -1.1794 3.3509492432217716 6.449150240677373 0.10848580945546647 1 0 2
1338 0 2 0.5897 6.227932940696381 6.035398242751095 0.5498755716083669 0 1 -4
1336 0 1 -1.1794 6.191912110468873 5.015262624062539 0.711478090803833 0 1 -4
1296 0 2 0.5897 7.348733420076972 6.297102023808176 3.4276509787087086 0 -2 0
1294 0 1 -1.1794 7.120530824309129 7.20145951390038 3.2246808158875897 0 -2 0
1295 0 2 0.5897 7.135796185922666 7.190039110640546 2.2905120621833692 0 -2 0
1094 0 2 0.5897 10.87348943837973 5.177423225688326 1.863091861075941 0 -1 2
1780 0 1 -1.1794 9.499347976715342 6.0397896050661295 0.6334815922847729 0 -1 2
1121 0 2 0.5897 10.316230695033555 7.386025848935364 3.188165358383796 0 0 -2
1269 0 2 0.5897 9.191329180250651 5.424799646815921 3.93296030499267 0 0 1
1267 0 1 -1.1794 8.504315006426774 4.715798833235568 3.925932227459465 0 0 1
1120 0 1 -1.1794 10.094931581822106 6.8321060942145975 3.950191261772977 0 0 -2
954 0 2 0.5897 11.10487708401432 7.738789824775712 1.1005339750243928 1 0 1
1781 0 2 0.5897 8.776815100121235 5.457279448563046 0.8172639799111733 0 -1 2
1093 0 1 -1.1794 11.666624401790603 4.579169952789005 1.8079550253852166 0 -1 2
1353 0 2 0.5897 4.022173215006806 8.32027377058163 2.988222605968648 0 -1 -1
1779 0 2 0.5897 2.627209104136894 11.254439062248137 0.9746844277597579 0 1 0
1777 0 1 -1.1794 2.0993887567520697 10.463359192741077 0.8924904187267392 0 1 0
1778 0 2 0.5897 2.2819020843418394 10.000590150217313 0.049520291143227875 0 1 0
891 0 2 0.5897 5.262427586151025 10.318289413940557 1.9813427433318296 0 1 2
889 0 1 -1.1794 4.814975551012312 9.979649990530618 2.772666261558667 0 1 2
890 0 2 0.5897 4.315822545923425 10.731597250616302 3.138526520154439 0 1 2
1112 0 2 0.5897 0.6670794315050917 11.708344196030595 0.9213043628648083 0 0 -1
537 0 2 0.5897 1.668578031335696 10.429310310002704 2.9930248765764844 0 1 0
742 0 1 -1.1794 6.395957778286026 10.651269029765489 0.5072569899793277 1 -1 1
535 0 1 -1.1794 1.28164639101669 10.612257066118495 3.8505524362575105 0 1 0
536 0 2 0.5897 1.041186102564574 11.54746482061399 3.864710666501714 0 1 0
237 0 2 0.5897 0.9550280088880007 8.694626989290317 1.3721395654189636 1 0 0
952 0 1 -1.1794 11.047824745277637 8.226531414029504 1.9231988583646684 1 0 1
743 0 2 0.5897 7.189175962162887 10.117897303649798 0.5646182348681165 1 -1 1
563 0 2 0.5897 9.103578393797484 10.76667912985666 1.6334716097484985 0 0 0
562 0 1 -1.1794 9.18474108476058 10.05578498594479 1.0079245832351333 0 0 0
953 0 2 0.5897 10.310711888002315 8.842097171508449 1.6755123184618064 1 0 1
564 0 2 0.5897 9.664894599118076 10.47578819463239 0.31212712692172756 0 0 0
744 0 2 0.5897 6.639759524172343 11.51196907188013 0.8815522925701077 1 -1 1
1027 0 1 -1.1794 9.270239594402298 11.451983926198036 3.336860442208018 0 1 0
1229 0 2 0.5897 7.485104015765343 8.977192221096306 4.094503315407376 1 -1 1
1028 0 2 0.5897 8.644673089310276 10.785303178405979 3.6461281524403644 0 1 0
2123 0 2 0.5897 11.588308823461574 11.544797379081873 1.1730647820804077 0 0 -1
2122 0 1 -1.1794 11.78225242189529 11.676219075946536 2.132931642876353 0 0 -1
2124 0 2 0.5897 10.928322724128904 11.639087276838444 2.557317422244303 0 0 -1
270 0 2 0.5897 4.575278797637267 12.493549292493634 0.4347392477696427 0 0 -1
268 0 1 -1.1794 3.8548742341774496 12.663468555368485 1.1042085566732387 0 0 -1
269 0 2 0.5897 4.286671557153785 12.970819182653226 1.9060076946357103 0 0 -1
284 0 2 0.5897 5.9632717922974114 14.884846086724249 3.276175468595614 0 0 -1
1761 0 2 0.5897 2.7807682664002153 15.63630997630728 3.362287231335061 1 1 1
283 0 1 -1.1794 5.478641367887644 15.691217324373655 3.0666830338916027 0 0 -1
1469 0 2 0.5897 1.0735370734459193 15.237245704938339 2.3056296230837767 1 0 1
777 0 2 0.5897 3.7621200809331756 14.840675253803777 0.7012359063222506 0 -1 -3
285 0 2 0.5897 5.01029685252246 15.532482462600738 2.231887939520742 0 0 -1
775 0 1 -1.1794 3.5327606354013428 15.715076140915269 1.0858985165778896 0 -1 -3
1759 0 1 -1.1794 2.483325847879529 14.799135304752243 3.7294851227401704 1 1 1
2238 0 2 0.5897 3.684743608385777 13.463381423897257 3.9455058307298043 1 0 3
2236 0 1 -1.1794 4.353074937611685 12.7355510089448 3.946668502803581 1 0 3
2237 0 2 0.5897 5.260692190957812 13.085320158633138 4.167181503709618 1 0 3
1029 0 2 0.5897 9.33984210797088 12.127654004288571 4.022842397691553 1 1 0
1821 0 2 0.5897 7.443513178179093 12.541793775023 2.4961402990196944 0 1 1
1819 0 1 -1.1794 7.164583344263249 13.114933347779065 1.8024887473594926 0 1 1
1820 0 2 0.5897 7.549814838573215 13.955470609882791 2.0132304855445016 0 1 1
497 0 2 0.5897 8.284734724483332 12.758741644628005 0.19549591982364886 1 0 3
1356 0 2 0.5897 9.38425172985608 15.424825994704854 2.4006673319843723 0 1 -1
290 0 2 0.5897 10.748693537001856 14.65234061271639 0.7990598301471359 0 -1 -2
289 0 1 -1.1794 11.02565803125199 14.715566004546135 1.7211307540964085 0 -1 -2
291 0 2 0.5897 10.945350357695478 13.78012196590949 2.067350040477171 0 -1 -2
1354 0 1 -1.1794 8.436290191543026 15.562606504287016 2.6714855421803407 0 1 -1
314 0 2 0.5897 3.115057904273232 20.03247524963683 1.885580404655301 0 -2 0
2109 0 2 0.5897 4.9405687798031845 19.89105976993221 3.245299942833541 0 -1 1
2144 0 2 0.5897 3.709516495464112 18.160043839255827 2.912127403242896 0 -1 1
2143 0 1 -1.1794 4.341048959168879 18.704821621214442 2.3626195948106363 0 -1 1
2145 0 2 0.5897 4.869560155352516 18.18451845910342 1.734682060756027 0 -1 1
1324 0 1 -1.1794 5.963092526341501 17.84533790127786 0.2485467218481339 0 -1 1
1263 0 2 0.5897 1.4724661174935898 17.746283926158867 3.4475451249146953 0 -3 -1
1261 0 1 -1.1794 2.3213221209585013 17.462583657228166 3.8100215333630727 0 -3 -2
776 0 2 0.5897 3.4950748969263894 16.33544234808514 0.3260586049872628 0 -1 -3
1232 0 2 0.5897 10.752007662521777 19.958853471079983 2.5982963611315193 1 0 -1
2077 0 1 -1.1794 7.887284665269433 19.8226621657464 2.724558893979909 0 -1 0
1325 0 2 0.5897 6.4268724444858005 17.025576536711615 0.007653218479344304 0 -1 1
2078 0 2 0.5897 7.1888902879186585 19.30293249224902 3.091490689759017 0 -1 0
1355 0 2 0.5897 8.135990162780896 16.337942755808594 2.1897532951240977 0 1 -1
128 0 2 0.5897 6.550186371816067 17.00260637566619 3.7469327111861377 0 0 -2
127 0 1 -1.1794 7.2950359453189275 17.576499002497155 4.116715621188272 0 0 -2
479 0 2 0.5897 8.590070542576886 18.61945521433786 1.6717188731660686 1 0 1
478 0 1 -1.1794 9.11822848835932 18.023553526851035 1.1172269039491025 1 0 1
773 0 2 0.5897 10.81899758748529 17.49467965763861 0.9409520218478051 0 0 2
1314 0 2 0.5897 9.617562044523016 17.47334476646047 3.0598148688452813 0 -1 0
1312 0 1 -1.1794 10.34588098265688 17.653946707536534 3.6297722581227663 0 -1 0
480 0 2 0.5897 9.110576004914812 18.28017122385554 0.17834650169201308 1 0 1
772 0 1 -1.1794 11.645796721872548 17.265612459715882 0.4554532967628857 0 0 2
216 0 2 0.5897 12.078959523051706 17.143682901689832 3.310878602354484 1 0 0
102 0 2 0.5897 3.8886076444517546 0.7507928671138168 5.25006296026173 0 -1 2
100 0 1 -1.1794 3.2728118866663647 0.8303255387816707 6.000209824931423 0 -1 2
101 0 2 0.5897 3.83180506337673 1.1248598038076494 6.700331544215538 0 -1 2
1994 0 2 0.5897 2.724947569074476 2.751178409278005 5.533779997234617 1 0 2
1993 0 1 -1.1794 2.1487397547538007 3.5164046189079787 5.415855331996089 1 0 2
1264 0 1 -1.1794 4.88282033662665 1.712442295841562 7.883618519339393 0 -2 1
1266 0 2 0.5897 5.71484096576544 1.240542295332331 7.993352812620402 0 -2 1
2108 0 2 0.5897 5.884536486958426 0.21145654018823942 4.463950720441509 0 0 1
1265 0 2 0.5897 5.199240383394336 2.633221828060165 7.721383411144103 0 -2 1
1034 0 2 0.5897 1.5488004502991357 0.3876576916904743 6.063393566741144 0 -3 1
1995 0 2 0.5897 1.3459952719280825 3.294323945523701 5.918959892093926 1 0 2
2171 0 2 0.5897 7.478190803601964 1.5658263589553165 6.100342560834463 0 1 -1
1400 0 2 0.5897 10.741083536593605 2.6861988695468724 4.620244245952557 0 1 -1
1143 0 2 0.5897 9.635631615317363 0.5142799396120477 4.651166716758603 0 -2 0
1090 0 1 -1.1794 10.607500272443218 0.23477001356449956 8.054031469167386 0 1 -1
2170 0 1 -1.1794 7.922466818401987 2.4202288742486524 6.274692320119603 0 1 -1
2172 0 2 0.5897 8.445472747859004 2.403189254331935 5.500900291644952 0 1 -1
1142 0 2 0.5897 10.069228321192766 0.4511747612296589 6.1061036968405356 0 -2 0
770 0 2 0.5897 8.376803891980355 2.396101267304872 8.012609580671628 0 -2 2
1783 0 1 -1.1794 11.959422168264451 2.641360313603413 5.887469053974671 0 1 0
1404 0 2 0.5897 6.310088698361079 4.514581357823136 5.006214514016717 0 -1 1
1403 0 2 0.5897 4.989084820355432 5.016185070933797 5.402627914296853 0 -1 1
1402 0 1 -1.1794 5.427411730097546 4.613842019721466 4.670230178644955 0 -1 1
1499 0 2 0.5897 5.067270684709474 4.880420340943562 7.472716428632569 1 1 0
836 0 2 0.5897 3.2062894080323345 6.277032115235665 6.258750483733214 0 0 0
837 0 2 0.5897 2.652570654308624 4.711088055808921 6.137747718412979 0 0 0
835 0 1 -1.1794 3.3178004437704733 5.338196104294218 6.533841389995817 0 0 0
1498 0 1 -1.1794 5.671159908584679 4.224473126843391 7.879744810854045 1 1 0
728 0 2 0.5897 4.86710956135039 7.677677702170699 7.943451439309017 1 0 0
1347 0 2 0.5897 3.471307353458983 7.8532231622795345 4.764152209121071 0 1 -1
1346 0 2 0.5897 2.0724450192202557 7.677518284767676 5.211565572478925 0 1 -1
1542 0 2 0.5897 1.1469916010050187 7.141380289384029 7.890900864851772 0 0 0
1345 0 1 -1.1794 2.9611494654107746 7.9531573921277925 5.572066032110814 0 1 -1
733 0 1 -1.1794 6.260061128113156 7.845294688038542 6.735790053567661 1 4 0
1197 0 2 0.5897 2.455297519680093 4.603254410694082 7.952796737472058 1 1 -1
502 0 1 -1.1794 11.970942021509327 6.175937038187065 5.737315079698716 1 1 0
1500 0 2 0.5897 6.4719880146570645 4.306770209889471 7.354056188103577 1 1 0
735 0 2 0.5897 7.023114190910009 7.249565521351682 6.607940531229069 1 4 0
1122 0 2 0.5897 10.8958925740668 6.8029475254538925 4.5059058860654835 0 0 -2
1361 0 2 0.5897 8.111960593619791 5.085882133883949 5.706637516334322 0 -2 0
119 0 2 0.5897 10.820209517539961 6.045844415898348 7.111028521797686 0 2 -2
118 0 1 -1.1794 10.391027560878543 5.780115200421476 7.951936890490836 0 2 -2
1362 0 2 0.5897 8.626864769868561 5.422115185999511 7.064746372022688 0 -2 0
1360 0 1 -1.1794 7.781164210337423 5.448652973820626 6.59091177000731 0 -2 0
1479 0 2 0.5897 4.2784415053002185 10.873896353214969 5.381501831542733 1 0 -1
1478 0 2 0.5897 3.8358176231444796 9.628034232996857 6.003161713159146 1 0 -1
1999 0 1 -1.1794 1.8787931347858065 10.264403660612496 6.808998136254406 1 -1 2
2001 0 2 0.5897 1.8717335527213856 10.03076095639245 5.859970660353586 1 -1 2
1477 0 1 -1.1794 4.653381069930836 10.099584477324068 5.868152350789869 1 0 -1
992 0 2 0.5897 4.6022560236139896 11.80979535515696 7.802700693907799 1 -1 -1
2000 0 2 0.5897 1.6121766419487318 9.400869803901507 7.159014622709601 1 -1 2
993 0 2 0.5897 3.166716101304533 11.741236734804101 7.4741346341999915 1 -1 -1
734 0 2 0.5897 6.135537582041479 8.262297215347118 5.852701669290557 1 4 0
1830 0 2 0.5897 0.8232106345863714 11.767492476522623 7.358878570391539 0 0 -1
1230 0 2 0.5897 6.483909534856734 10.08494601978441 4.3862344059964515 1 -1 1
79 0 1 -1.1794 11.932098139441038 9.903496910925352 6.325309330580359 0 2 -1
1998 0 2 0.5897 9.447532948132267 8.024800248744796 5.553450938943744 1 -2 1
1228 0 1 -1.1794 7.385742554103664 9.846032721444473 4.516334115540235 1 -1 1
1997 0 2 0.5897 8.933294367106372 9.359047660686368 6.017287799031084 1 -2 1
1996 0 1 -1.1794 9.456289739764019 8.586522523117715 6.3033653881574 1 -2 1
81 0 2 0.5897 10.969130131759742 9.596092165226196 6.396778798571742 0 2 -1
1299 0 2 0.5897 8.568588279682007 11.845197389757109 6.437165617983659 0 1 0
1297 0 1 -1.1794 9.380993136545817 11.350372564475375 6.5188405194812145 0 1 0
1298 0 2 0.5897 10.003319877319326 11.923226271330828 6.016603078550434 0 1 0
66 0 2 0.5897 10.262671305348501 11.206973865922604 8.333120800500032 0 -1 0
551 0 2 0.5897 6.765759894058673 11.262615058587505 7.6858673619551094 0 0 0
99 0 2 0.5897 6.789936871260805 9.209098295842933 7.5875701114616 0 -1 0
97 0 1 -1.1794 7.307555104600107 9.67340255172138 8.30342477052237 0 -1 0
991 0 1 -1.1794 3.7620736217281525 12.19323631596987 8.060566961269283 1 -1 -1
2064 0 2 0.5897 1.599566498425196 13.896443735860208 6.8187584796174505 0 -1 1
2062 0 1 -1.1794 1.962133849885809 14.71397645462258 6.440865019114541 0 -1 1
1760 0 2 0.5897 2.112741484048758 14.943122014587267 4.645407082031312 1 1 1
2063 0 2 0.5897 2.768657157069671 14.802400698700154 7.000909833689292 0 -1 1
1306 0 1 -1.1794 3.9208253850513244 14.71108305483372 8.169001162417468 0 -1 -1
1308 0 2 0.5897 4.64384338243256 15.065884270903672 7.614088474707977 0 -1 -1
2015 0 2 0.5897 0.9615914420237863 15.713822956144204 7.4580095609748644 1 0 1
522 0 2 0.5897 4.666316412620838 15.986166798070872 5.606947833646751 0 3 0
1307 0 2 0.5897 3.9350857165636435 13.740823613884011 8.16668236481212 0 -1 -1
737 0 2 0.5897 6.613496545443366 12.94948370829619 5.626666558924405 1 2 -1
736 0 1 -1.1794 6.696931160701638 13.403935190752899 4.7643208752952475 1 2 -1
738 0 2 0.5897 7.2780906970653705 14.163251595078684 4.951034502298283 1 2 -1
1553 0 2 0.5897 9.635274488916362 14.141426802033637 4.89938662124685 0 -1 1
61 0 1 -1.1794 8.366938269667331 15.42601677789712 5.468030291004912 0 -1 0
1554 0 2 0.5897 11.166485663036292 13.879720574047408 4.81964140174947 0 -1 1
1552 0 1 -1.1794 10.323874705238037 13.432258134293123 4.76308684955295 0 -1 1
550 0 1 -1.1794 6.470001160555139 12.168824679996128 7.448838629073063 0 -1 0
552 0 2 0.5897 6.754687535840367 12.686369739287942 8.23227574941598 0 -1 0
950 0 2 0.5897 9.593924859723156 14.334278713485679 7.927568168229191 1 0 -1
1008 0 2 0.5897 7.0180102793120716 15.756251615745251 7.49452753651858 1 1 -2
62 0 2 0.5897 8.845613312597825 15.757286225485968 6.2739468349821275 0 -1 0
949 0 1 -1.1794 8.837646384957766 13.840577729066158 8.25753187133877 1 0 -1
2075 0 2 0.5897 2.712326675339005 18.749857214611854 7.092324736474279 0 -1 0
1262 0 2 0.5897 2.347878064055222 17.883071269550726 4.663526414112877 0 -2 -2
2074 0 1 -1.1794 2.580584994167853 17.98558984183606 6.473472712664393 0 -1 0
520 0 1 -1.1794 5.007682449062352 16.632174792908437 6.27450843631649 0 3 0
521 0 2 0.5897 4.226480124760437 17.17669619065252 6.430467281393453 0 3 0
2076 0 2 0.5897 1.9822956554164526 17.4789024040977 6.99443179057408 0 -1 0
63 0 2 0.5897 8.300891447094749 16.174206202783246 4.81419313724134 0 -1 0
1141 0 1 -1.1794 9.656274206514295 19.996820979292018 5.439812763618973 0 -3 0
129 0 2 0.5897 6.996034212079663 18.104545190247716 4.81498544445352 0 0 -2
1313 0 2 0.5897 10.101657832992165 18.155367524769737 4.424089868856094 0 -1 0
1091 0 2 0.5897 11.239270405028362 19.666063759693056 7.718668623053231 0 0 -1
741 0 2 0.5897 7.924382703041513 19.7358648923164 5.834557667477217 1 0 1
740 0 2 0.5897 6.7877835209598345 19.606185528799067 6.992641464808128 1 -1 1
739 0 1 -1.1794 6.9257546342381024 19.613381501265327 5.99968041695796 1 0 1
789 0 2 0.5897 9.543752349851532 17.044189197917852 8.217746845720786 0 -3 1
788 0 2 0.5897 10.623454792253822 16.96923022271981 7.113214043487328 1 -3 1
787 0 1 -1.1794 9.8858630736864 16.45435768998777 7.476314026834266 0 -3 1
352 0 1 -1.1794 11.928179240214522 18.47025640452224 6.6237165612245406 0 0 -1
354 0 2 0.5897 12.088729257484683 19.118133368843615 5.924668357724485 0 0 -1
1376 0 2 0.5897 1.1390521509169313 1.0184861762874047 8.856230770492166 0 1 0
1375 0 1 -1.1794 1.4153651836176517 1.816641787356758 9.377221273708011 0 1 0
1196 0 2 0.5897 1.7820352573947975 3.607098164288201 8.706355800723498 1 1 -1
2112 0 2 0.5897 2.7662307032089357 1.7601699856169217 11.715280111134804 0 2 -1
1104 0 2 0.5897 1.0574156111798794 3.196928558787759 12.468938067227478 0 2 -1
833 0 2 0.5897 4.717189557377113 2.0334765362762464 9.755875351741507 0 1 1
832 0 1 -1.1794 4.558547276056249 1.7336266863217615 10.696180206731677 0 1 1
834 0 2 0.5897 5.413848576856673 1.5324991281921883 11.029480562116392 0 1 1
2110 0 1 -1.1794 2.1115151537937766 1.6051164007472518 12.411676359937157 0 2 -1
1016 0 2 0.5897 4.89472307119331 2.687266401367187 12.347071902251363 0 -1 0
1791 0 2 0.5897 3.207941771360872 0.34951710724468726 9.470510389123172 0 0 0
554 0 2 0.5897 11.902225223048093 0.6080508789306632 10.952073016620874 0 1 -1
1092 0 2 0.5897 11.004194096039997 0.9634184333977154 8.473317942412317 0 1 -1
846 0 2 0.5897 7.510338989448526 1.6428274360061865 12.060020029791579 0 1 0
107 0 2 0.5897 10.6959632281137 2.578082055151798 11.213316447478006 0 0 0
771 0 2 0.5897 9.17055323809772 2.6976678900133417 9.191706107520092 0 -2 2
769 0 1 -1.1794 8.294800531998023 2.491617855671533 8.940825611730592 0 -2 2
845 0 2 0.5897 7.657146826074157 1.4211020766693028 10.580861530445995 0 1 0
106 0 1 -1.1794 10.86551784830428 2.339419981328019 10.249373940120494 0 0 0
844 0 1 -1.1794 7.00369770935747 1.2571874645649646 11.296915709062182 0 1 0
74 0 2 0.5897 6.489232927625894 3.7576159277938057 11.324241936731653 0 1 -1
108 0 2 0.5897 11.539473261982351 2.9957267957963145 9.968610237493259 0 0 0
75 0 2 0.5897 7.453883547615216 3.697747115599762 10.0339696171008 0 1 -1
342 0 2 0.5897 11.961410430641873 3.4284125207488176 12.374142236571 0 2 0
975 0 2 0.5897 0.6780775787846105 6.761013295563654 10.166560232500263 1 1 0
226 0 1 -1.1794 3.7832949696412657 4.670372760890852 10.707079791471081 1 1 -1
228 0 2 0.5897 4.426692122327684 5.1242817133348355 10.177490635664398 1 1 -1
227 0 2 0.5897 3.0023012101046738 4.7335273427370135 10.098745559460923 1 1 -1
1195 0 1 -1.1794 1.7804907203900908 4.547476427777555 8.651147994601974 1 1 -1
1541 0 2 0.5897 2.53196085746789 7.5742173753850475 8.427059227242166 0 0 0
763 0 1 -1.1794 6.179884222964115 6.634884374211716 10.287361430254656 0 1 0
765 0 2 0.5897 5.610571985699987 6.749842642847121 9.53495063041934 0 1 0
393 0 2 0.5897 5.1408628421349905 6.887161390924518 11.632747497544505 0 2 0
264 0 2 0.5897 1.3605490272227279 6.343781907916344 12.189863261555734 1 0 1
727 0 1 -1.1794 4.200987386430856 7.586207236744283 8.678671994609394 1 0 0
1540 0 1 -1.1794 1.6184690485565896 7.844969784653519 8.435740905996942 0 0 0
391 0 1 -1.1794 4.5006549206840365 7.313172612394446 12.260198464819265 0 2 0
392 0 2 0.5897 3.591930917735966 6.895211377882596 12.34811309456057 0 2 0
1103 0 2 0.5897 0.7543461184926399 4.4946446987966935 11.721114503627602 0 2 -1
120 0 2 0.5897 10.210913480850461 6.5356928192189265 8.524860318910896 0 2 -2
825 0 2 0.5897 11.777157392604003 4.478347356210914 8.412830771755608 0 0 -1
764 0 2 0.5897 6.594017765720789 5.715444695215557 10.286812907776365 0 1 0
73 0 1 -1.1794 7.177331116240663 4.187161730534682 10.781987546100854 0 1 -1
2252 0 2 0.5897 8.940162702732097 6.726139967472934 11.45841248590223 1 0 -1
2251 0 1 -1.1794 8.818558829585701 5.980158412093775 12.045065604047108 1 0 -1
2253 0 2 0.5897 8.273828327744997 5.3748823399303856 11.542225417520173 1 0 -1
1240 0 1 -1.1794 9.675004227250975 7.96276936725014 9.172804835967966 1 1 1
729 0 2 0.5897 4.28716713040097 8.418974194014522 9.151811650002136 1 0 0
1392 0 2 0.5897 3.8943005766423404 10.67400157666176 9.618302439822687 0 2 -1
1390 0 1 -1.1794 3.8862715318669334 9.881391745734113 10.174265088543162 0 2 -1
1391 0 2 0.5897 4.763587179663606 9.808755054456388 10.584985783082631 0 2 -1
18 0 2 0.5897 2.362537564640343 9.774200921740588 11.157844374798875 0 -1 0
17 0 2 0.5897 1.217054867858283 10.661534637330805 11.726367667421755 0 -1 0
16 0 1 -1.1794 1.546354566049207 9.773881612643445 11.667927422902293 0 -1 0
1448 0 2 0.5897 11.779830792322242 10.010309880453068 9.260023330031824 1 2 -1
1241 0 2 0.5897 10.529950270503889 8.48579568315005 8.953691064746165 1 1 1
1242 0 2 0.5897 9.022778129313984 8.130196191546943 8.43400701056334 1 1 1
1526 0 2 0.5897 9.562956285700809 8.690405694863681 10.789219858967932 0 -1 0
1621 0 1 -1.1794 6.532904426949088 9.441762396749303 10.924422003295579 0 4 0
1525 0 1 -1.1794 9.351694719823097 8.887357765882726 11.723388255837083 0 -1 0
98 0 2 0.5897 6.891320086844462 9.383841118953482 9.124923468537439 0 -1 0
1527 0 2 0.5897 9.478976181594279 9.874813700294183 11.840324919902676 0 -1 0
64 0 1 -1.1794 10.389398092778546 11.22644668539195 9.320275242400804 0 -1 0
1622 0 2 0.5897 7.318585650878135 9.969835854354248 11.09991186983807 0 4 0
1623 0 2 0.5897 6.741648391536779 8.506919745159935 10.94107235000171 0 4 0
852 0 2 0.5897 8.816481065664522 11.823346059649884 11.579337672025115 0 0 1
851 0 2 0.5897 8.394090047608927 11.404809662950752 10.131467380732404 0 -1 1
850 0 1 -1.1794 8.05758796882828 11.8224839955328 10.944430653045213 0 -1 1
2267 0 2 0.5897 11.091382492495462 11.507628221151286 12.40589181753278 1 2 0
477 0 2 0.5897 1.5800377393123086 15.40460557501617 10.666016494439877 1 1 0
575 0 2 0.5897 2.1123753574311532 13.34203978208861 10.344485203913893 0 2 1
1825 0 1 -1.1794 3.601065388773204 13.360013697833214 11.345905147453777 0 -2 1
1826 0 2 0.5897 4.447246210060991 13.20620761729322 10.883623410011918 0 -2 1
1827 0 2 0.5897 3.66268460367495 12.764364152496169 12.106838168907727 0 -2 1
109 0 1 -1.1794 5.959494969642657 13.3573863288458 10.038731944200618 0 -1 1
111 0 2 0.5897 6.236993111012966 13.988329635640172 9.391630905231926 0 -1 0
574 0 1 -1.1794 1.1965793724171794 13.459283386272624 10.057913973228372 0 2 1
54 0 2 0.5897 5.820770861336376 15.979032290334048 11.778722898394403 0 -1 0
576 0 2 0.5897 1.18428929749318 13.342052085978203 9.078318147979441 0 2 1
1006 0 1 -1.1794 6.729434600869549 15.561169474217666 8.439527702675049 1 1 -2
951 0 2 0.5897 8.238838302616116 14.47279914229044 8.766314830494567 1 0 -1
65 0 2 0.5897 10.557636656193003 12.170396468867773 9.610265048365003 0 -1 0
110 0 2 0.5897 6.694487436347236 12.74527315754035 10.310139136862345 0 -1 1
1514 0 2 0.5897 10.177811536179588 14.503382794083638 10.251907858801788 0 1 0
1513 0 1 -1.1794 11.137564168799635 14.277186599959203 10.234888316107677 0 1 0
1515 0 2 0.5897 11.449156404124489 14.233136067355046 9.31996503344115 0 1 0
545 0 2 0.5897 8.228420203203026 14.290887739931309 11.148778033241175 0 2 0
544 0 1 -1.1794 8.411513406523579 15.257599886783304 10.929037958515254 0 1 0
546 0 2 0.5897 7.598059253181213 15.75495333643057 10.878279503918357 0 1 0
508 0 1 -1.1794 0.7857690511232546 18.855143319986098 10.400133838173616 0 -1 -2
1007 0 2 0.5897 6.066839103836393 16.284268351402787 8.637342442743195 1 1 -2
2016 0 2 0.5897 0.9447651123125411 16.57892524392296 8.764892968735824 1 0 1
476 0 2 0.5897 2.8840789558222886 16.126408395671366 10.063274167744218 1 1 0
475 0 1 -1.1794 2.079682399380903 16.235867378827788 10.545737144848255 1 1 0
1809 0 2 0.5897 2.4083357971635833 16.62186465128612 12.453126680394027 0 3 -1
1789 0 1 -1.1794 2.940311222625386 19.5883386548307 8.95449286214106 0 -1 0
2097 0 2 0.5897 4.070663278045288 18.256266904877137 9.14332565632237 0 0 1
2096 0 2 0.5897 5.1263714044636135 17.537643326146753 10.103921970646562 0 0 1
2095 0 1 -1.1794 4.775733018839907 17.568017483729687 9.188576155218678 0 0 1
1790 0 2 0.5897 2.1352712241935716 19.325692594819785 9.510767961222639 0 -1 0
52 0 1 -1.1794 6.21522836108838 16.802818819315547 11.44723490457734 0 -1 0
530 0 2 0.5897 6.121626008980834 18.946235728734436 8.758081327156178 0 0 0
53 0 2 0.5897 6.102821873354127 17.412036434118917 12.263917936461489 0 -1 0
1806 0 2 0.5897 4.295244015987675 19.538353566069997 11.74751190543945 0 -1 1
1804 0 1 -1.1794 4.653584507262375 18.87900387981867 12.349849888300406 0 -1 1
510 0 2 0.5897 0.9373790145956867 18.063185614554307 10.951689836916405 0 -1 -2
553 0 1 -1.1794 12.155938165937059 19.886072205738248 11.450995563970748 0 0 -1
529 0 1 -1.1794 6.761900507737054 19.641819928553414 8.506280518340745 0 0 -1
531 0 2 0.5897 7.583502739002513 19.18784266781434 8.716019066158385 0 0 0
482 0 2 0.5897 11.165135891133461 16.796511647898853 10.252552281949617 1 -1 0
849 0 2 0.5897 9.861802970861712 19.1877744854641 9.105665973461189 0 1 1
847 0 1 -1.1794 9.183791040602024 18.58268741456029 9.43797854395408 0 1 1
848 0 2 0.5897 8.958910534394285 18.6935960236278 10.359197582869747 0 1 1
1814 0 2 0.5897 7.828145386970742 19.524175602789818 12.327500800880818 0 1 -1
1813 0 1 -1.1794 8.521575170089633 18.872466560404767 12.140634467999593 0 1 -1
1512 0 2 0.5897 9.225631473280737 16.135115804173438 12.292480522233992 0 0 1
483 0 2 0.5897 11.595008639274615 18.277104297328567 10.455624549403908 1 -1 0
481 0 1 -1.1794 11.908284848535143 17.40312397260303 10.162587615630747 1 -1 0
2111 0 2 0.5897 2.523542997633883 1.7316014883571231 13.288093822005331 0 2 -1
243 0 2 0.5897 5.68774836851597 1.185198288781313 13.719075620917492 1 0 0
1015 0 1 -1.1794 5.476123924614336 2.951509850073897 13.037832853044442 0 -1 0
767 0 2 0.5897 2.8082466442531038 3.6117463028410315 14.798658806044655 0 -1 0
1982 0 2 0.5897 2.154134657386453 1.2684855309702703 15.87194830233404 1 0 0
1981 0 1 -1.1794 2.0692671335950203 1.9354396531718403 15.145697152579812 1 0 0
1983 0 2 0.5897 1.1236789390185478 2.121067109786805 15.182198984592706 1 0 0
2151 0 2 0.5897 4.485336523118401 0.5629265746912157 15.571824268021542 0 0 1
241 0 1 -1.1794 5.766102504619806 0.41690949647751097 14.227876813815215 1 0 0
2149 0 1 -1.1794 3.9270117433376748 0.5358429665321535 16.39773033676944 0 0 1
1017 0 2 0.5897 4.9223309323109286 3.434484074232111 13.689947253378826 0 -1 0
1758 0 2 0.5897 3.789933848207135 3.014117532178297 16.397126792066466 1 -2 0
340 0 1 -1.1794 11.266021760119653 2.9654105740074788 12.918927867346433 0 2 0
505 0 1 -1.1794 8.550675172196495 1.8991083984835366 13.736911592627358 0 -1 0
506 0 2 0.5897 9.409299710213151 2.2122474974733346 13.440359664727076 0 -1 0
507 0 2 0.5897 8.762634807590732 1.3202750143943607 14.541980966086093 0 -1 0
1871 0 2 0.5897 6.820550648702403 3.3302943137293934 16.65505495701348 0 1 1
755 0 2 0.5897 11.740773223245043 2.912451203402599 15.849704059129694 1 1 0
1838 0 2 0.5897 7.45376143079394 3.2951171773462686 14.385533880165616 0 0 0
754 0 1 -1.1794 10.902748722902219 3.054254090348017 16.259805338835598 1 1 -1
756 0 2 0.5897 10.728172000280798 2.1235742194810374 16.51620121143033 1 1 0
229 0 1 -1.1794 9.917688240110722 0.30379138119453175 16.08695087719821 1 1 -2
1837 0 1 -1.1794 7.259749957041274 3.90949082564226 15.101782878701764 0 0 0
341 0 2 0.5897 10.725645808050494 3.7912108064693824 13.355027318454077 0 2 0
1282 0 1 -1.1794 7.128827072630918 0.23503328194374895 16.66204421326506 0 3 0
1283 0 2 0.5897 6.724823351020943 0.39066299451080394 15.784895904025808 0 3 0
231 0 2 0.5897 9.034338548673215 0.05884785674117455 16.372234765874087 1 1 -2
766 0 1 -1.1794 3.4104607778801252 4.318885956088787 14.432001892628492 0 -1 0
768 0 2 0.5897 2.8868323888123815 4.759973421885651 13.783914366466117 0 -1 0
262 0 1 -1.1794 1.9709263384606481 6.342686823925493 12.901431362810166 0 0 1
2243 0 2 0.5897 5.535516567411343 6.234816703681587 13.795536193557725 1 1 2
263 0 2 0.5897 1.4730429830619645 6.4241604432948325 13.73395312100704 0 0 1
1014 0 2 0.5897 1.2834781853571635 5.87634136494914 16.2191953035254 0 -1 0
1013 0 2 0.5897 2.5301684912179763 6.729335303675903 15.67935094595358 1 -1 0