LAMMPS data file via write_data, version 23 Jun 2022, timestep = 7555000

2268 atoms
2 atom types

0.6824380675601702 46.768260932423544 xlo xhi
0 20.047001 ylo yhi
0 20.857 zlo zhi

Masses

1 1.008
2 15.999

Atoms # full

2088 0 2 0.5897 5.783711421524398 0.7493988283536276 2.3203466200681997 0 1 0
2087 0 2 0.5897 4.939192362375309 1.6060541706798197 1.2702752341638222 0 1 0
2086 0 1 -1.1794 4.871889362450476 1.1433964287061604 2.1412410376091175 0 1 0
543 0 2 0.5897 2.0681088782015005 2.546460500887896 3.5521912984514605 0 -1 0
541 0 1 -1.1794 2.9137494889306303 2.6691278126733 4.021317594890753 0 -1 0
542 0 2 0.5897 3.618756407836972 2.0954638592469497 3.629272371219814 0 -1 0
1760 0 2 0.5897 2.978076733071796 0.38777206591146757 2.132090169611653 1 1 1
2246 0 2 0.5897 6.301216808969859 2.743018877000471 0.14274371362348806 1 0 2
1095 0 2 0.5897 8.551292449002482 2.9083415557096264 0.9664539417843193 0 -1 1
2021 0 2 0.5897 10.992425566122261 3.0984182113436725 2.8084243747747863 0 0 0
2020 0 1 -1.1794 10.670317114697133 2.251875400917979 3.224265883890631 0 0 0
2024 0 2 0.5897 7.923842843785492 3.5835147676384236 3.3586785673385053 0 -1 -1
1093 0 1 -1.1794 8.51814641589348 2.3920256935953583 0.1382499368933972 0 -1 1
1289 0 2 0.5897 7.830821230334327 0.8987871391046907 1.3114889604843847 0 1 0
231 0 2 0.5897 11.964810842615371 1.0383253144197158 0.7818841924382832 1 0 -1
2023 0 1 -1.1794 7.900127075401764 3.815945438298185 2.433452386960737 0 -1 -1
1290 0 2 0.5897 7.986116137055807 0.010570058807416148 2.698642726747458 0 1 0
1288 0 1 -1.1794 7.4884435657671915 0.1387168653531275 1.8562413232142028 0 1 0
2022 0 2 0.5897 10.053405728294129 2.53705061177338 3.909051829058059 0 0 0
1845 0 2 0.5897 11.073929516157321 0.6675952742356057 2.597310127066437 0 0 -2
261 0 2 0.5897 1.7948689216669642 4.1203574554396445 0.34851556926758936 0 -1 0
766 0 1 -1.1794 2.6581607833372383 6.707080296299707 1.802465900379928 0 -1 1
767 0 2 0.5897 3.6023091106307237 6.665332722887945 1.6044287953904288 0 -1 1
1766 0 2 0.5897 5.196588821606981 4.682354539380187 2.0956960254513395 0 1 0
768 0 2 0.5897 2.4027104591182553 7.658705404288525 1.6922830644831168 0 -1 1
1765 0 1 -1.1794 5.174932706831068 4.577115524284248 3.078128989571047 0 1 0
1767 0 2 0.5897 4.228155557868743 4.3682555269671 3.2873846744529684 0 1 0
1028 0 2 0.5897 5.266704461805629 7.716530078582321 1.4711893546907708 0 1 -1
2150 0 2 0.5897 4.335305496234894 8.015222875753038 3.5583742376388066 0 0 1
260 0 2 0.5897 1.5851086358051407 5.340703187336341 1.2381976369604113 0 -1 0
1381 0 1 -1.1794 6.161504414339656 4.845526553919348 0.4517056286231161 0 2 1
1986 0 2 0.5897 1.0345742289883775 7.706386959980336 4.130183382179744 1 0 1
1392 0 2 0.5897 1.247039955320417 5.257763616785736 3.7788769330532914 0 1 -1
259 0 1 -1.1794 1.100911019557028 4.615434877428873 0.8641409690559302 0 -1 0
1383 0 2 0.5897 6.874993310918791 5.528697606394664 0.6358465993295086 0 2 1
2025 0 2 0.5897 7.057017921103809 4.347773225608465 2.363762925728538 0 -1 -1
4 0 1 -1.1794 11.428187148506856 4.659765485528221 1.2627898089482916 0 1 -1
373 0 1 -1.1794 7.9884533927168775 6.6515192616076675 0.8086247335376755 0 -2 -2
5 0 2 0.5897 10.937207497378338 5.259261877276493 1.8296854937895468 0 1 -1
375 0 2 0.5897 8.656654524873733 6.264249571530694 1.4330627444446111 0 -2 -2
374 0 2 0.5897 7.757245508262104 7.485643837777253 1.285203388393149 0 -2 -2
474 0 2 0.5897 11.026546308429898 6.8427207991883945 3.5065553411893515 1 0 0
472 0 1 -1.1794 10.232587560942335 6.32649565582035 3.1837928329757847 1 0 0
832 0 1 -1.1794 11.442196246316328 7.9635411635134705 0.7524300569513047 0 0 1
1314 0 2 0.5897 7.295951909447996 7.829203753861258 3.653058681380923 0 0 0
473 0 2 0.5897 10.081643778808257 5.651145232880596 3.915538809402552 1 0 0
1027 0 1 -1.1794 5.902016061237734 8.085518257050742 2.1117542315309015 0 1 -1
1029 0 2 0.5897 5.726411524722031 9.0306141057216 2.2106926114813694 1 1 -1
385 0 1 -1.1794 1.6672838302572455 9.424515156739513 1.5969038034268472 0 0 0
548 0 2 0.5897 4.4587389973616585 10.923130808401535 3.062578588609937 0 -3 1
547 0 1 -1.1794 5.325065193638372 10.525361217334302 2.953313617182052 0 -3 1
1579 0 1 -1.1794 2.692900669631869 10.793660842400035 4.1310005773467084 0 2 -1
51 0 2 0.5897 1.3536609981228072 11.751433052658145 3.5536599642461293 0 0 3
386 0 2 0.5897 2.0743545870733424 10.307344472577952 1.4328441761174626 0 0 0
1581 0 2 0.5897 3.0648152862166933 9.921498756840617 4.034600473415518 0 2 -1
387 0 2 0.5897 1.030675961685665 9.326692113408024 0.8838684302039154 0 0 0
1768 0 1 -1.1794 3.2470388693357686 11.312430241517294 0.5519458232525599 0 0 0
549 0 2 0.5897 5.719921403835754 10.544025466072144 3.8460405334025274 0 -3 1
1769 0 2 0.5897 4.077079449526945 10.985620537659553 0.28918179688629186 0 0 0
1985 0 2 0.5897 0.7564467100994394 8.88132067304544 3.2814686687374746 1 0 1
1002 0 2 0.5897 9.872507561985566 8.503797146542658 2.056141539895901 1 -1 -1
1001 0 2 0.5897 9.400861965301122 9.533956551206312 3.0752316258930716 1 0 -1
1000 0 1 -1.1794 9.20682065641187 9.20405562688446 2.193049016919096 1 -1 -1
32 0 2 0.5897 10.668273045914955 10.360029124209483 1.2669197306491937 0 1 1
384 0 2 0.5897 8.499269645803817 11.05673179676513 0.6697546339537039 0 2 -1
33 0 2 0.5897 11.869381035207498 11.166419463088282 0.8349364980197503 0 1 2
31 0 1 -1.1794 10.897626149854265 11.124381169338605 0.7552384618795155 0 1 1
518 0 2 0.5897 3.661547774426753 12.882324738554694 1.6095517519193072 0 -1 1
519 0 2 0.5897 4.390827204026959 14.145964565860812 2.163916172003926 0 -1 1
574 0 1 -1.1794 5.356585584938962 15.305874291071271 1.4551585480572726 0 1 1
576 0 2 0.5897 5.203687485155051 15.413266444581181 0.49371816767146287 0 1 1
774 0 2 0.5897 2.4829505847321727 14.829403879938363 2.3224373520000836 0 0 1
772 0 1 -1.1794 2.433497395146927 15.814101452954663 2.473862316558878 0 0 1
517 0 1 -1.1794 3.766365562325462 13.41595765635409 2.438973398962388 0 -1 1
575 0 2 0.5897 6.1272469510145635 14.70867871298066 1.5097916813671877 0 1 1
773 0 2 0.5897 1.515337609185592 15.994403721993558 2.278033848591497 0 0 1
50 0 2 0.5897 0.9896606565224484 12.59313640877268 2.307849343757053 0 0 3
714 0 2 0.5897 1.3706421771024284 14.239073850019759 0.29136059820142063 1 0 1
75 0 2 0.5897 6.3847201533643005 12.315154039392564 2.9326388999300805 0 0 0
712 0 1 -1.1794 0.8880274252655159 13.535468753187654 0.8172103446511622 1 0 1
49 0 1 -1.1794 0.6938526461206891 12.330919344291553 3.203409741888001 0 0 3
73 0 1 -1.1794 6.7682569703978634 13.146101176133305 2.6284800336299368 0 0 0
74 0 2 0.5897 7.671663463015749 12.95693889911836 2.339577051267347 0 0 0
1102 0 1 -1.1794 9.265021676674769 13.235839998790274 1.752328809147465 0 1 0
1103 0 2 0.5897 9.551125033654992 13.208174677841807 2.6828901025800875 0 1 0
1104 0 2 0.5897 10.00667204488241 12.727050328839487 1.346003741133741 0 1 0
2145 0 2 0.5897 9.685937443746475 15.031387089495883 1.482148043076563 0 -1 2
2143 0 1 -1.1794 10.109900323193665 15.927399095427697 1.2490355531728439 0 -1 2
347 0 2 0.5897 7.230259193460602 14.36068128388327 3.9226521936887533 0 0 1
1759 0 1 -1.1794 2.2137599519819533 19.884720437888504 2.2187471796250904 1 0 1
1761 0 2 0.5897 2.0380824358620075 19.714695941788637 3.152253454622799 1 0 1
623 0 2 0.5897 5.7992393313049595 16.79568561549091 2.5698130709487446 0 0 -2
309 0 2 0.5897 3.366244895192848 16.92237113044009 1.3820624520768694 0 -1 1
307 0 1 -1.1794 3.5246876711625887 17.783235495264517 0.995240080740078 0 -1 1
308 0 2 0.5897 3.190737442547973 18.410685720524754 1.6861197296218369 0 -1 1
267 0 2 0.5897 5.336203535738765 18.260313702591944 0.7698802597705583 0 -1 -1
265 0 1 -1.1794 6.258296572943385 18.263146963419636 0.4101924506416378 0 -1 -1
622 0 1 -1.1794 6.109386515877931 17.253717741841633 3.3517143762021226 0 0 -2
2144 0 2 0.5897 9.564869706851576 16.325751693859267 0.5718546064681596 0 -1 2
482 0 2 0.5897 10.190022133186561 16.910213592653612 2.834760448389843 1 -1 0
216 0 2 0.5897 11.747781277831692 16.40138757568527 0.9174274202968126 1 0 0
266 0 2 0.5897 6.81613158039137 18.823171756816475 0.9388363483926279 0 -1 -1
624 0 2 0.5897 6.95134208541175 17.545990600437847 3.06727117085297 0 0 -2
1843 0 1 -1.1794 11.341500156423454 19.908796575071705 2.118535605842629 0 -1 -2
1844 0 2 0.5897 10.938211517764975 19.145491684579422 2.5025496742712328 0 -1 -2
483 0 2 0.5897 11.022459024130585 17.22044083140639 4.115757164571591 1 -1 0
481 0 1 -1.1794 10.36392146249757 17.615809325488936 3.541324666879828 1 -1 0
1230 0 2 0.5897 9.860684405018773 19.637910166858855 0.37489960212432083 1 -1 1
1476 0 2 0.5897 7.184776228950651 16.665503963421557 0.20006645530269093 1 -1 2
1490 0 2 0.5897 5.903520213572717 1.582444542514389 6.680081035458135 1 1 -1
1489 0 1 -1.1794 6.335848294664916 1.5885817990222229 5.812421269621474 1 1 -1
291 0 2 0.5897 2.102083009577221 2.234157112389621 7.582346657084058 0 0 -1
1803 0 2 0.5897 4.029479288810855 0.7469327035630166 8.20413748777429 0 0 0
289 0 1 -1.1794 2.647728659060112 1.7006859488537867 8.180985885206535 0 0 -1
1491 0 2 0.5897 6.175771447732111 2.498883111914263 5.415288849197707 1 1 -1
2257 0 1 -1.1794 2.239042893991682 3.8540998771372994 6.331043892754872 1 0 0
2258 0 2 0.5897 2.5757396437832556 3.3783880488175364 5.514071334467085 1 0 -1
1763 0 2 0.5897 8.588567015184697 2.326208424474993 5.512009613597423 1 2 0
306 0 2 0.5897 10.816591011723336 3.1661943503473924 7.54356006723158 0 1 0
1762 0 1 -1.1794 8.70818796163696 3.1704021842583114 5.006271268736737 1 2 0
1764 0 2 0.5897 9.302726977675132 3.7517571700376693 5.480666408396989 1 2 0
305 0 2 0.5897 11.993560610671901 2.7169387316772102 6.5648380851012735 0 1 0
304 0 1 -1.1794 11.487426734795642 2.4953403574073922 7.338483081899186 0 1 0
1507 0 1 -1.1794 9.085312377703916 1.0158740392167638 6.670514504039918 1 1 0
1509 0 2 0.5897 8.399422458200668 1.05788222608969 7.351466672268863 1 1 0
1508 0 2 0.5897 9.918958305364491 1.3508168250381314 7.063402863152293 1 1 0
524 0 2 0.5897 12.041491359335318 2.5183736762331677 4.417680636410852 0 -2 1
2151 0 2 0.5897 3.10426803935326 7.439052727893915 4.335299549146066 0 0 1
2259 0 2 0.5897 3.0518582966134504 4.315700614053228 6.603658494382779 1 0 0
1391 0 2 0.5897 1.6400762262823267 5.284144859994191 5.171872131481668 0 1 -1
138 0 2 0.5897 5.209454298855788 5.569964148482387 6.578066514146409 0 1 0
136 0 1 -1.1794 4.369221181240598 5.439292018634623 7.077391803223853 0 0 0
1390 0 1 -1.1794 1.3281797449133808 5.877827221775861 4.488688460654212 0 1 -1
1100 0 2 0.5897 1.1643669786096056 6.899591376684803 8.326604945143146 0 -1 0
530 0 2 0.5897 3.4288365210819767 6.961508240192859 7.545111616336969 0 0 0
29 0 2 0.5897 5.783860122568397 5.433031132614635 4.627312354555967 0 0 1
137 0 2 0.5897 4.5233412244298705 4.914790650281717 7.860229453171105 0 0 0
28 0 1 -1.1794 6.397232049231883 5.621657391219208 5.406284332797188 0 0 1
529 0 1 -1.1794 2.8464478635839074 7.600510599280896 7.960231951863853 0 0 -1
1313 0 2 0.5897 8.51419007871816 7.512341276889525 4.467952732158058 0 0 0
1312 0 1 -1.1794 7.714751224606919 7.992381291970528 4.504609837340307 0 0 0
1742 0 2 0.5897 11.266647544068075 5.1491807830839385 6.194216335841777 1 1 1
1741 0 1 -1.1794 10.439790372278205 5.0583023856124525 5.65702538649127 1 1 1
1743 0 2 0.5897 9.927174379327214 5.773131211289589 6.030643764739356 1 1 1
30 0 2 0.5897 6.52271251605902 6.600051643035427 5.190891320828405 0 0 1
1035 0 2 0.5897 7.713912322163179 5.575505513194501 6.999521907104745 0 -2 0
1033 0 1 -1.1794 8.142697705884881 6.001931339567159 7.79178487038345 0 -2 0
1034 0 2 0.5897 8.467669133696269 5.175114212483613 8.229557795787928 0 -2 0
854 0 2 0.5897 9.574607311702295 7.151015812435719 8.281903973675757 0 -1 0
853 0 1 -1.1794 10.305968519322093 7.776467882347237 8.125884787098745 0 -1 0
1993 0 1 -1.1794 0.8193218814957789 10.047243717056112 6.596254604144554 1 0 2
2149 0 1 -1.1794 3.769296687929302 8.195547152479234 4.284595632879679 0 0 1
1580 0 2 0.5897 3.3902689432430884 11.262706017781193 4.598418532928761 0 2 -1
531 0 2 0.5897 2.6588851712699313 8.334133903144235 7.42254415986537 0 0 0
1834 0 1 -1.1794 5.285927595033135 8.776038118649911 6.599691041469922 0 -1 -2
1835 0 2 0.5897 4.840149045639995 8.362722952448971 5.871974330873275 0 -1 -2
1836 0 2 0.5897 4.569628120117143 9.252849601569352 7.046522362808271 0 -1 -2
563 0 2 0.5897 2.6278994932716504 10.806634712827343 7.319853271545218 0 0 -1
564 0 2 0.5897 4.106190937410039 11.031761617519841 7.954228095210187 0 0 -1
562 0 1 -1.1794 3.395990718219829 10.398505396419791 7.737703990725523 0 0 -1
756 0 2 0.5897 6.415176304874785 11.450517111126628 8.209691591999233 1 0 -1
252 0 2 0.5897 6.22904553610855 9.948945678701522 5.842236420690137 1 0 -2
251 0 2 0.5897 5.957629362046176 11.46849427082131 5.744233312701408 1 0 -2
1995 0 2 0.5897 0.7401783866951961 11.020491306794286 6.495579852462671 1 0 2
724 0 1 -1.1794 10.31340232528799 8.431791784376978 5.528588303644316 1 1 -1
855 0 2 0.5897 10.204670424438362 8.208733920749344 7.255185991946168 0 -1 0
250 0 1 -1.1794 6.5157968742866 10.786055591436064 5.403101323343 1 0 -2
725 0 2 0.5897 10.143237185200993 9.345396363351641 5.226649611176093 1 1 -1
1528 0 1 -1.1794 9.316399143039174 10.77748089940244 4.428542753421087 0 0 2
1530 0 2 0.5897 8.431081774224097 10.560880436707537 4.730348139089129 0 0 2
726 0 2 0.5897 11.28388115904695 8.271317066298598 5.587597145982734 1 1 -1
1529 0 2 0.5897 9.403189333310452 11.73926342905136 4.554286570759477 0 0 2
1546 0 1 -1.1794 11.467809879551648 11.992680424869372 6.366684784525203 0 -3 0
1325 0 2 0.5897 12.144196839400925 10.131407178121744 4.604261858060523 0 -1 1
2073 0 2 0.5897 4.136760256428741 13.309277988141632 4.394851862158695 0 1 0
244 0 1 -1.1794 0.8494623014207657 12.71311485662318 6.439019694570736 1 -3 0
754 0 1 -1.1794 5.6668157329245155 12.133943170894595 8.177858656526176 1 0 -2
755 0 2 0.5897 6.048893371190788 13.028652910578481 7.991609642339261 1 0 -1
2071 0 1 -1.1794 4.263307278829236 12.712526237456048 5.221964202022823 0 1 0
2072 0 2 0.5897 4.155530998615619 13.444168746531735 5.877673075133904 0 2 0
1265 0 2 0.5897 2.8940008473307097 15.180000449077143 6.894407168048512 0 -2 0
1264 0 1 -1.1794 2.862515988852751 14.341859557989805 7.350306374235206 0 -2 0
1266 0 2 0.5897 2.443357433456166 14.38939572536391 8.226581606083414 0 -2 0
246 0 2 0.5897 1.5910422877785473 13.310647055685113 6.663588606935574 1 -2 0
859 0 1 -1.1794 3.6861691099584335 15.75232963898493 4.975771707109273 0 -1 2
1775 0 2 0.5897 11.872300580857473 15.918733517837925 6.074074375556735 0 -1 1
348 0 2 0.5897 7.029147486210218 15.761605149036997 4.659882119014702 0 0 1
1609 0 1 -1.1794 9.0660505723343 12.036103072795322 7.411887833773106 0 1 -2
1611 0 2 0.5897 9.831216552445312 12.085004350053339 6.831945960240857 0 1 -2
838 0 1 -1.1794 9.779235899834667 13.608034836567168 4.4094001504386435 0 -1 1
346 0 1 -1.1794 7.398859726705906 14.87821992963358 4.7521294201385444 0 0 2
1547 0 2 0.5897 11.549804999880227 12.651454488400969 7.092042647620201 0 -3 0
839 0 2 0.5897 9.014860694158699 14.073049050845094 4.756511364668721 0 -1 1
840 0 2 0.5897 10.46987336622676 14.10078330588601 4.922333549532893 0 -1 1
1610 0 2 0.5897 8.58866747220572 12.88342763204382 7.337342956734442 0 1 -2
994 0 1 -1.1794 7.184204075767646 14.293968188363841 7.456475745557816 1 0 2
996 0 2 0.5897 7.226473166244772 14.702530449513677 6.545319301477914 1 0 2
1776 0 2 0.5897 10.90949372804386 15.201363744823862 7.131517504210135 0 0 1
1774 0 1 -1.1794 11.272249802174002 15.161802848285854 6.203028020791528 0 0 1
995 0 2 0.5897 6.986071682459431 15.081925895873056 8.017790874532157 1 0 2
1285 0 1 -1.1794 9.723875488424524 15.615169764723417 8.306193143024554 0 0 1
861 0 2 0.5897 3.1905180009348992 16.104266507205946 4.187298891489986 0 -1 2
860 0 2 0.5897 4.53467453174777 16.191826248754193 4.7793225049881665 0 -1 2
1982 0 2 0.5897 5.775717726581766 19.80859518973598 5.425876681670048 1 -1 0
1981 0 1 -1.1794 5.075004576229987 19.143630946673362 5.1941850968917915 1 -1 0
591 0 2 0.5897 2.017308808255817 19.99870450759562 5.50620659411059 0 -3 0
1983 0 2 0.5897 5.556151855172572 18.508297023535413 4.629962287482482 1 -1 0
590 0 2 0.5897 3.291665905244069 19.219636950053108 5.01615841271922 0 -3 0
589 0 1 -1.1794 2.3447563868123313 19.221549948701714 5.014762365999299 0 -3 0
2033 0 2 0.5897 3.6947003962226033 17.55021624525988 7.820841457604881 0 -1 -2
2032 0 1 -1.1794 4.66268672478924 17.43398316030245 7.779058940603072 0 -1 -2
1802 0 2 0.5897 4.872682020330446 19.495827944539965 8.300991628801825 0 -1 0
2034 0 2 0.5897 4.972909462406087 16.559283457453347 8.204344608556903 0 -1 -2
1082 0 2 0.5897 6.0863210885976 17.512395641688034 6.782115363991783 0 -2 0
2069 0 2 0.5897 1.106241117131999 17.85085390038362 5.308331708862292 0 -3 0
1535 0 2 0.5897 0.947796658014032 18.858860058989606 8.130215402180069 0 0 -1
1294 0 1 -1.1794 8.358249409988376 19.021101250745993 4.586825576147734 0 -3 1
1773 0 2 0.5897 11.89954468560241 19.83719891104209 5.965463392204896 0 -1 -1
1286 0 2 0.5897 9.079624103582772 16.087732638884116 7.843174479679208 0 0 1
1296 0 2 0.5897 9.067867505909192 18.427873046479537 4.244929519294225 0 -3 1
1295 0 2 0.5897 8.806867200808034 19.657275571721478 5.13967579545792 0 -3 1
1083 0 2 0.5897 7.351748187337337 17.80925115971175 5.8953439964689345 0 -2 0
1772 0 2 0.5897 10.937191595578781 19.000354728196026 6.827002482247425 0 -1 -1
1771 0 1 -1.1794 11.21263073702014 19.102547138379983 5.904156982355902 0 -1 -1
1081 0 1 -1.1794 7.03347393811244 17.216164967716985 6.575249960345473 0 -2 0
1893 0 2 0.5897 7.827444739724653 18.112766027800426 8.065037176683317 0 -2 -1
1801 0 1 -1.1794 4.9248595777831286 0.418729544360211 8.368433862398176 0 0 0
290 0 2 0.5897 1.9875557203072085 1.189451924805869 8.710914356817803 0 0 -1
1217 0 2 0.5897 3.748530425605921 2.96142359891941 9.316491618525491 1 0 0
475 0 1 -1.1794 1.5776596799802252 0.5650577484149296 10.555736142701202 1 1 0
477 0 2 0.5897 2.322422315537331 0.4893024538369556 11.153435362643618 1 1 0
476 0 2 0.5897 0.9844996098767034 1.1851330029971188 11.034999937738514 1 1 0
1337 0 2 0.5897 4.461482726147822 0.6739500832357248 10.398909121933487 0 1 -4
1338 0 2 0.5897 5.036587371471534 0.8037928774477573 11.892354372064238 0 1 -4
1336 0 1 -1.1794 4.212411903540602 0.6917119112544894 11.335992054683022 0 1 -4
1360 0 1 -1.1794 6.087079084353576 3.6960574188614963 11.221738900061908 0 -2 0
1218 0 2 0.5897 4.71787213487585 3.8854934311426916 10.117921256507167 1 0 0
1216 0 1 -1.1794 3.996258057921051 3.892524414477347 9.474714443973655 1 0 0
1625 0 2 0.5897 11.500066126703388 0.8531067718996957 9.43578892168869 0 0 -1
2015 0 2 0.5897 6.685095007060974 0.9801744489453131 8.893084960821165 1 0 0
2014 0 1 -1.1794 7.2809897238258685 1.5913739450534985 9.388445265804764 1 0 0
632 0 2 0.5897 8.490256674969451 2.890150714080211 8.765656689100227 0 0 -1
631 0 1 -1.1794 9.254802481284743 3.485724183462924 8.720636267598579 0 0 -1
633 0 2 0.5897 9.715031404749626 3.3992084093722252 9.517229710300388 0 0 -1
2103 0 2 0.5897 9.48934681010578 2.0140767400985453 11.315981310233697 0 0 0
2101 0 1 -1.1794 10.02783086577834 2.9027270155113647 11.369603266387353 0 0 0
1361 0 2 0.5897 6.561917996489882 2.9555902872909274 10.738231833031742 0 -2 0
2102 0 2 0.5897 10.949221304741233 2.645737826614868 11.392542056435571 0 0 0
2016 0 2 0.5897 7.774948732826625 0.9975516157318578 10.008180552812016 1 0 0
610 0 1 -1.1794 8.64468759648257 0.6231233599225431 11.650774757058233 0 1 1
612 0 2 0.5897 8.147501530221833 0.5355964553886821 12.467314603052525 0 1 1
984 0 2 0.5897 2.540293790573953 4.191056129365323 10.548729204837036 1 1 0
1259 0 2 0.5897 5.941500921892197 7.848964060014923 9.672454449155556 1 1 -1
982 0 1 -1.1794 1.925655998994274 4.254615375152827 11.27491413702415 1 1 0
983 0 2 0.5897 2.2175872547652693 4.97327151803321 11.875423943856669 1 1 0
1245 0 2 0.5897 3.3597652083708134 7.075795607805495 12.092871962220729 1 1 1
1258 0 1 -1.1794 6.919389982237821 7.823241238302879 9.461560707145056 1 1 -1
1362 0 2 0.5897 6.814998293270476 4.248782482067411 11.519474928856972 0 -2 0
1850 0 2 0.5897 11.680792138812908 7.184148710940616 8.988731824156748 0 -1 -1
2147 0 2 0.5897 12.053310200588497 5.090045246798845 11.504450258127664 0 -1 -2
1260 0 2 0.5897 7.018976436043237 7.279816897573087 8.691649963697866 1 1 -1
2146 0 1 -1.1794 11.373390942589097 5.450871243171791 12.120415053948426 0 -1 -2
2148 0 2 0.5897 10.487758107924705 5.197625068316189 11.772443386226474 0 -1 -2
2236 0 1 -1.1794 8.158152757180495 5.152059869475864 12.11462461838207 1 0 2
2237 0 2 0.5897 7.965389768676601 6.108697355096381 11.92193662516584 1 0 2
762 0 2 0.5897 11.219091235882841 7.130682619383306 11.906841996325959 0 0 1
1495 0 1 -1.1794 8.336652488629774 7.967159365633661 11.588974721570466 1 1 1
1496 0 2 0.5897 7.875317091533726 7.874118970470709 10.766995439122523 1 1 1
1497 0 2 0.5897 9.305448956744055 7.8702235780636975 11.464716331156623 1 1 1
2100 0 2 0.5897 3.971484916529719 8.301533912993031 9.573275951199971 0 0 0
2098 0 1 -1.1794 4.267343419508487 8.261938001643127 10.454511472607297 0 0 0
645 0 2 0.5897 5.9018785704491625 10.634667507523464 12.168520607666414 0 -1 0
643 0 1 -1.1794 5.06844301977915 10.14927644326774 12.327181862075198 0 -1 0
1829 0 2 0.5897 2.0785983081224026 11.02598983843435 12.128574427006079 0 0 -1
2099 0 2 0.5897 4.194965936454377 9.096542165010513 10.85580177212005 0 0 0
461 0 2 0.5897 2.2357151721627497 10.813023272963028 9.516301910852441 1 1 0
460 0 1 -1.1794 2.3302628133255174 11.374069715354057 10.305355474247984 1 1 0
462 0 2 0.5897 3.1366178622297283 11.851380277688335 10.299168909732986 1 1 0
2056 0 1 -1.1794 0.8190497108077959 9.41667225739449 9.068570166759457 0 -2 0
285 0 2 0.5897 8.313073868088509 10.606423406007343 8.356837828755456 0 0 -1
284 0 2 0.5897 7.41699229616087 9.408857416789235 8.816526456049276 0 0 -1
283 0 1 -1.1794 7.473231592610339 10.361385159104085 8.744557033594138 0 0 -1
977 0 2 0.5897 10.57831157591863 9.503715725326837 9.356177514163589 1 -1 0
976 0 1 -1.1794 10.663383059631482 10.191015352236775 10.08397766960727 1 -1 0
978 0 2 0.5897 10.507857432197788 9.708331470495276 10.936468253269785 1 -1 0
1478 0 2 0.5897 8.038301106374853 11.212555300085626 11.579331613207383 1 0 -1
760 0 1 -1.1794 11.28121035735532 8.079636294275655 11.823050008966815 0 0 1
1477 0 1 -1.1794 7.387755264779511 11.684050833295485 11.00030832251712 1 0 -1
1479 0 2 0.5897 7.51301015002304 11.20704449072959 10.167699896519682 1 0 -1
1022 0 2 0.5897 10.851844057524637 11.974101426052126 9.626203235546136 0 1 -2
1292 0 2 0.5897 5.509362144381531 14.836489688474886 9.840446759379894 0 -1 -3
1291 0 1 -1.1794 5.79845990152829 15.583489645585841 9.348672879003772 0 -1 -3
1779 0 2 0.5897 1.7640533487369858 15.118674222387886 11.01717070687071 0 0 0
1734 0 2 0.5897 5.087449646031383 12.637501223406634 9.764729449250297 1 -1 1
1733 0 2 0.5897 5.125872239932435 13.24291556743192 11.339685216231143 1 -1 1
1732 0 1 -1.1794 4.713049335812522 13.280494748258413 10.424295575109317 1 -1 1
1778 0 2 0.5897 3.1687800839746263 14.4972352903609 10.618560791751216 0 0 0
1777 0 1 -1.1794 2.7700943915014 15.27575786649766 11.096991969289203 0 0 0
140 0 2 0.5897 12.148672099002033 13.043749638661692 10.620734729136778 0 1 -1
1021 0 1 -1.1794 11.18575403703691 12.853697622531516 9.268469974938967 0 1 -2
1023 0 2 0.5897 10.39548957565418 13.378616289873204 9.238108978883865 0 1 -2
1701 0 2 0.5897 8.351955508332292 14.381369503844697 9.498939886318185 1 0 0
1699 0 1 -1.1794 8.7282032728601 13.919772249842447 10.247647390937626 1 0 0
1700 0 2 0.5897 8.196594679793478 13.159703499373652 10.556322553569142 1 0 0
1510 0 1 -1.1794 9.201595703864188 15.889252499294237 11.945593322677801 1 0 1
1511 0 2 0.5897 8.967986823668495 15.260970524001749 11.239703266169288 1 0 1
1063 0 1 -1.1794 1.9627205780845318 17.335684833366756 8.764797930469781 0 -1 -1
1065 0 2 0.5897 1.2174684821952884 16.68484602466149 8.686305510686696 0 -1 -1
1293 0 2 0.5897 5.935948646511012 16.32816103755426 9.939182688949842 0 -1 -3
1064 0 2 0.5897 2.4233719071207838 17.184468298852906 9.604771683959184 0 -1 -1
269 0 2 0.5897 3.8676653532936607 18.947313546442288 11.42333773794403 0 0 -1
270 0 2 0.5897 3.0750917109369285 17.701231566890925 11.840208029225936 0 0 -1
268 0 1 -1.1794 3.6124671937713115 18.061797237866923 11.111750466278366 0 0 -1
1352 0 2 0.5897 5.394815306539619 17.96159604941655 11.078847369177328 0 -2 -1
1351 0 1 -1.1794 6.320044139958632 17.961200127672367 10.869400129555597 0 -2 -1
1287 0 2 0.5897 10.215601212696452 16.2609665740447 8.836851688097045 0 0 1
991 0 1 -1.1794 10.741173702139577 19.46447220284391 8.80720408327568 1 -1 -1
611 0 2 0.5897 9.31623413562939 19.944086418003817 11.69367777003643 0 0 1
568 0 1 -1.1794 10.53749056579776 18.37935525859709 11.763813148262225 0 -1 0
993 0 2 0.5897 9.799642142119316 19.15530609790454 8.820704948091882 1 -1 -1
1891 0 1 -1.1794 8.131131585748246 18.7736321945191 8.750083860017744 0 -2 -1
1892 0 2 0.5897 7.574253064558663 18.55592535317444 9.505652722708025 0 -2 -1
570 0 2 0.5897 10.149614740964452 17.4551408501392 11.652491340979518 0 -1 0
569 0 2 0.5897 11.385598074055425 18.368435004382007 11.303971295787369 0 -1 0
1353 0 2 0.5897 6.842819700472759 17.90806047910274 11.737434618702869 0 -2 -1
992 0 2 0.5897 11.191211636559277 18.668949335316597 9.181700916529323 1 -1 -1
1737 0 2 0.5897 12.111602244059233 16.61031392322286 10.247545549764514 1 0 2
1735 0 1 -1.1794 11.889691234517437 17.010549436727196 9.39701721543158 1 0 2
16 0 1 -1.1794 0.9454679949680487 0.6749459171151604 14.092298487274158 0 0 0
1747 0 1 -1.1794 6.350492704681928 0.30101734578609 13.158824080971634 1 0 1
1151 0 2 0.5897 5.167291487558045 3.631962965744595 12.589104614236915 0 1 -1
1150 0 1 -1.1794 4.611245079655859 3.766270850719781 13.402084550127919 0 1 -1
20 0 2 0.5897 2.222782749450483 1.8611560153706244 14.513624397569279 0 -1 -1
21 0 2 0.5897 3.303824005549716 2.910917901143889 14.045369652710665 1 -1 -1
19 0 1 -1.1794 2.563233943914023 2.7549434513347277 14.667339158962456 0 -1 -1
557 0 2 0.5897 3.1346809378127514 3.7605815712426605 15.998141634993543 0 -2 -1
2078 0 2 0.5897 5.800005394579636 2.860342623926916 14.457814139695936 0 0 -1
1748 0 2 0.5897 6.322614449914644 1.0063858373005645 13.842151572756093 1 0 1
1638 0 2 0.5897 0.9546234901972084 3.4643219052986804 14.682649531729151 0 0 -1
2079 0 2 0.5897 6.498354765323096 2.5469159419435763 15.888813723811912 0 0 -1
2077 0 1 -1.1794 6.524684155105289 2.3870904083165327 14.931444873827228 0 0 -1
537 0 2 0.5897 9.486741480772901 2.8847403905291666 13.293778440442086 0 1 -1
536 0 2 0.5897 8.33875979335411 3.0210414192556696 14.350210116390077 0 1 -1
535 0 1 -1.1794 9.216860449938945 2.708702227864205 14.197955468172253 0 1 -1
1868 0 2 0.5897 9.306767690353524 1.1359078706767514 15.042994424079787 0 1 1
1826 0 2 0.5897 11.184491099835105 3.5963201381740437 14.915406191007255 0 -2 1
1867 0 1 -1.1794 9.409104986840036 0.3048719249220265 15.548461583896273 0 1 0
1152 0 2 0.5897 4.768063535513044 4.600874592915312 13.785392404099868 0 1 -1
479 0 2 0.5897 4.579497173680564 6.420528053027277 15.833641419513082 1 1 0
1243 0 1 -1.1794 2.7105311590815617 6.756140736076337 12.703205933303709 1 1 1
1244 0 2 0.5897 2.00478955480525 7.353114382304766 12.624397438028721 1 1 1
478 0 1 -1.1794 5.251077729178108 6.18302303372289 15.229412822698347 1 1 0
480 0 2 0.5897 5.384034777341333 7.003613815006257 14.772794971453882 1 1 0
2211 0 2 0.5897 2.8389187778504796 7.719555460184858 16.329557280398383 1 0 0
791 0 2 0.5897 11.939714790797574 6.16760593303298 14.538770904486025 0 -2 0
792 0 2 0.5897 12.137654441004885 7.649425009045281 15.208019677408238 0 -2 0
782 0 2 0.5897 7.082856069575817 5.846907105382231 15.152196881124333 0 -2 -1
2238 0 2 0.5897 8.018514291409046 5.202460895263669 13.081935792379157 1 0 2
1112 0 2 0.5897 8.949595963525745 7.085110509639816 14.603587318333977 0 0 -1
781 0 1 -1.1794 7.96294204581622 5.574854770240928 14.80529268251654 0 -2 -1
783 0 2 0.5897 8.384365758211437 5.150337585670394 15.534931960464867 0 -2 -1
1827 0 2 0.5897 11.46173464334439 4.318135616325546 13.520978594568652 0 -2 1
1825 0 1 -1.1794 11.770470914241178 4.122954171328064 14.371557795236603 0 -2 1
1111 0 1 -1.1794 9.45557944088106 7.9114378122168745 14.70923690052293 0 0 -1
644 0 2 0.5897 4.59597876463247 10.884853662478672 12.74693855639796 0 -1 0
1828 0 1 -1.1794 1.5630888172194908 10.660556631860604 12.894576130999914 0 0 -1
2254 0 1 -1.1794 3.5233218088093796 8.86111522397866 14.94989750382947 1 0 0
2256 0 2 0.5897 3.706146049700632 9.824344366196367 14.943483255189346 1 0 0
1837 0 1 -1.1794 6.353285984732917 8.165818786785096 13.756021859016137 0 -1 0
2255 0 2 0.5897 3.0384502707401837 8.585385869252667 14.189534714177594 1 0 0
1839 0 2 0.5897 5.6809110575006025 8.796240558708684 13.425586013304413 0 -1 0
1830 0 2 0.5897 2.025668264181765 10.956915406288358 13.686443759326268 0 0 -1
505 0 1 -1.1794 4.114417423130371 11.896464957136162 14.364764037130081 0 -2 0
1128 0 2 0.5897 2.876910554890593 12.024847633135831 15.753241473579868 0 0 -1
1127 0 2 0.5897 1.9717300341240533 11.163321427672242 16.64160582786195 0 0 -1
805 0 1 -1.1794 12.032661733427574 9.75082622091466 14.031326128304519 0 0 2
1113 0 2 0.5897 9.244313527254027 8.34731849888058 15.55016156648869 0 0 -1
2049 0 2 0.5897 7.058770090213114 8.21792278740096 15.522643243439978 0 -1 -1
761 0 2 0.5897 11.439244447390548 8.412885687388073 12.712833682152052 0 0 1
1838 0 2 0.5897 7.02360394386985 8.248695747662186 13.053773305153932 0 -1 0
1051 0 1 -1.1794 7.02454776834684 11.846765972735106 14.610674863559478 0 1 -1
2114 0 2 0.5897 8.964168543494221 9.289769693756153 13.341768938752717 0 -2 -4