LAMMPS (23 Jun 2022)
echo both

include		in.partitions
variable        pid world 0
include		in.temp
variable	temperature equal 270.0
variable        tempDamp equal 0.100 # this is 0.1 ps
include		in.pressure
variable        pressure equal 5066.25
variable        pressureDamp equal 1.0 #this is 1ps
include		in.seed
variable        seed world 745823

units           metal
atom_style	full
read_restart	restart.lmp.${pid}
read_restart	restart.lmp.0
Reading restart file ...
  restart file = 23 Jun 2022, LAMMPS = 23 Jun 2022
  restoring atom style full from restart
  orthogonal box = (0.66134951 0 0) to (46.789349 20.047001 20.857)
  4 by 1 by 1 MPI processor grid
Summary of lammps deepmd module ...
  >>> Info of deepmd-kit:
  installed to:       /u/sigbjobo/software/DEEPMD_FROM_SOURCE/deepmd-kit/install
  source:             v2.1.3
  source branch:       master
  source commit:      5a32c49
  source commit at:   2022-07-01 09:52:58 +0800
  surpport model ver.:1.1 
  build float prec:   double
  build with tf inc:  /u/sigbjobo/software/DEEPMD_FROM_SOURCE/tensorflow/install/include;/u/sigbjobo/software/DEEPMD_FROM_SOURCE/tensorflow/install/include
  build with tf lib:  /u/sigbjobo/software/DEEPMD_FROM_SOURCE/tensorflow/install/lib/libtensorflow_cc.so;/u/sigbjobo/software/DEEPMD_FROM_SOURCE/tensorflow/install/lib/libtensorflow_framework.so
  set tf intra_op_parallelism_threads: 0
  set tf inter_op_parallelism_threads: 0
  >>> Info of lammps module:
  use deepmd-kit at:  /u/sigbjobo/software/DEEPMD_FROM_SOURCE/deepmd-kit/install
  source:             v2.1.3
  source branch:      master
  source commit:      5a32c49
  source commit at:   2022-07-01 09:52:58 +0800
  build float prec:   double
  build with tf inc:  /u/sigbjobo/software/DEEPMD_FROM_SOURCE/tensorflow/install/include;/u/sigbjobo/software/DEEPMD_FROM_SOURCE/tensorflow/install/include
  build with tf lib:  /u/sigbjobo/software/DEEPMD_FROM_SOURCE/tensorflow/install/lib/libtensorflow_cc.so;/u/sigbjobo/software/DEEPMD_FROM_SOURCE/tensorflow/install/lib/libtensorflow_framework.so
  restoring pair style deepmd from restart
  2268 atoms
Finding 1-2 1-3 1-4 neighbors ...
  special bond factors lj:    0        0        0       
  special bond factors coul:  0        0        0       
     0 = max # of 1-2 neighbors
     0 = max # of 1-3 neighbors
     0 = max # of 1-4 neighbors
     1 = max # of special neighbors
  special bonds CPU = 0.001 seconds
  read_restart CPU = 0.016 seconds
include 	in.setup
variable	out_freq equal 500
variable	out_freq2 equal 1000
variable	out_freq3 equal 5000

timestep        0.0005

neigh_modify    delay 7 every 1

include         in.deepmd
# This is deepMD model

# create groups ###
#group ox type 2
#group hy type 1

mass 2 15.999
mass 1 1.008

pair_style      deepmd ../graph.pb
pair_coeff      * *

bond_style      none
angle_style     none
dihedral_style  none
improper_style  none
neigh_modify exclude none


neighbor        2.0 bin
neigh_modify    every 10 delay 0 check no

thermo          ${out_freq}
thermo          500
thermo_style 	custom step temp pe etotal epair emol press lx ly lz vol pxx pyy pzz pxy pxz pyz
#thermo_modify	flush yes
restart 	${out_freq} restart.lmp.${pid} restart2.lmp.${pid}
restart 	500 restart.lmp.${pid} restart2.lmp.${pid}
restart 	500 restart.lmp.0 restart2.lmp.${pid}
restart 	500 restart.lmp.0 restart2.lmp.0

include		in.dump
dump            myDump all atom ${out_freq3} dump.water.${pid}
dump            myDump all atom 5000 dump.water.${pid}
dump            myDump all atom 5000 dump.water.0
dump            myDump2 all dcd ${out_freq2} dump.dcd.${pid}
dump            myDump2 all dcd 1000 dump.dcd.${pid}
dump            myDump2 all dcd 1000 dump.dcd.0
dump_modify     myDump append yes
dump_modify     myDump2 append yes


timer           timeout 23:50:00 every 1000
New timer settings: style=normal  mode=nosync  timeout=23:50:00

fix             1 all plumed plumedfile plumed.dat outfile plumed.out
fix             3 all nph x ${pressure} ${pressure} ${pressureDamp}
fix             3 all nph x 5066.25 ${pressure} ${pressureDamp}
fix             3 all nph x 5066.25 5066.25 ${pressureDamp}
fix             3 all nph x 5066.25 5066.25 1
Resetting global fix info from restart file:
  fix style: nph, fix ID: 3
fix             4 all temp/csvr ${temperature} ${temperature} ${tempDamp} ${seed}
fix             4 all temp/csvr 270 ${temperature} ${tempDamp} ${seed}
fix             4 all temp/csvr 270 270 ${tempDamp} ${seed}
fix             4 all temp/csvr 270 270 0.1 ${seed}
fix             4 all temp/csvr 270 270 0.1 745823
Resetting global fix info from restart file:
  fix style: temp/csvr, fix ID: 4

run             40000000 upto

CITE-CITE-CITE-CITE-CITE-CITE-CITE-CITE-CITE-CITE-CITE-CITE-CITE

Your simulation uses code contributions which should be cited:

- USER-DEEPMD package:

@article{Wang_ComputPhysCommun_2018_v228_p178,
  author = {Wang, Han and Zhang, Linfeng and Han, Jiequn and E, Weinan},
  doi = {10.1016/j.cpc.2018.03.016},
  url = {https://doi.org/10.1016/j.cpc.2018.03.016},
  year = 2018,
  month = {jul},
  publisher = {Elsevier {BV}},
  volume = 228,
  journal = {Comput. Phys. Commun.},
  title = {{DeePMD-kit: A deep learning package for many-body potential energy representation and molecular dynamics}},
  pages = {178--184}
}

CITE-CITE-CITE-CITE-CITE-CITE-CITE-CITE-CITE-CITE-CITE-CITE-CITE

Generated 0 of 1 mixed pair_coeff terms from geometric mixing rule
All restart file global fix info was re-assigned
Neighbor list info ...
  update every 10 steps, delay 0 steps, check no
  max neighbors/atom: 2000, page size: 100000
  master list distance cutoff = 8
  ghost atom cutoff = 8
  binsize = 4, bins = 12 6 6
  1 neighbor lists, perpetual/occasional/extra = 1 0 0
  (1) pair deepmd, perpetual
      attributes: full, newton on
      pair build: full/bin
      stencil: full/bin/3d
      bin: standard
Per MPI rank memory allocation (min/avg/max) = 6.149 | 6.149 | 6.149 Mbytes
   Step          Temp          PotEng         TotEng         E_pair         E_mol          Press            Lx             Ly             Lz           Volume          Pxx            Pyy            Pzz            Pxy            Pxz            Pyz      
  37713500   268.96847     -350.36447     -271.5479      -350.36447      0              4448.9335      46.128         20.047001      20.857         19287.053      6247.5696      3149.4041      3949.8268     -1056.0026     -898.94644     -2411.5191    
  37714000   274.6612      -352.92079     -272.43606     -352.78298      0              2480.4926      46.312096      20.047001      20.857         19364.028      2094.3848      2660.8089      2686.2842      737.70458     -557.93636      714.66487    
  37714500   272.70569     -352.31311     -272.40141     -352.21485      0              6550.9916      46.376986      20.047001      20.857         19391.159      6866.1096      5940.8994      6845.9658     -160.31187     -696.13424     -109.17173    
  37715000   276.41655     -348.9325      -267.93339     -348.76059      0              5128.5911      46.377073      20.047001      20.857         19391.195      3968.0704      5133.4839      6284.2188     -195.73891     -814.75072      970.50666    
  37715500   270.97456     -350.37528     -270.97086     -350.20352      0              5578.8723      46.172929      20.047001      20.857         19305.839      6537.5687      5321.1596      4877.8887     -1626.9817      779.17001     -151.2958     
  37716000   264.54242     -350.15607     -272.63648     -349.98003      0              5178.1049      46.167052      20.047001      20.857         19303.382      5892.4289      2980.1468      6661.7389     -180.2501      -29.945875     -224.9018     
  37716500   281.59903     -351.74532     -269.22758     -351.56963      0              5657.8329      46.332571      20.047001      20.857         19372.589      5846.7249      6059.8506      5066.9233     -844.93183      1658.6779     -668.02295    
  37717000   270.47574     -352.53206     -273.27381     -352.35959      0              2633.2973      46.418993      20.047001      20.857         19408.723      3937.5414      1760.5686      2201.782      -1117.8682     -348.37755      955.27132    
  37717500   268.46889     -349.35261     -270.68243     -349.17777      0              4359.7891      46.380167      20.047001      20.857         19392.489      2343.8988      6965.8062      3769.6622     -1168.6366      416.04599      221.09118    
  37718000   272.55966     -350.72882     -270.85991     -350.56101      0              5242.8426      46.125023      20.047001      20.857         19285.808      6813.1846      2846.7764      6068.5666     -221.63889      881.72629     -1058.278     
  37718500   276.40031     -352.5852      -271.59086     -352.42412      0              5014.6414      46.257953      20.047001      20.857         19341.389      7722.6498      3827.9513      3493.3232     -34.046906     -252.75896     -247.64784    
  37719000   268.06534     -351.65447     -273.10255     -351.48178      0              2412.5994      46.372873      20.047001      20.857         19389.44       2796.7975      593.18236      3847.8183     -1001.2731      1927.5712      1047.1017    
  37719500   269.47361     -349.7997      -270.83511     -349.62339      0              5667.072       46.227948      20.047001      20.857         19328.844      4154.5176      6402.1927      6444.5058     -1257.6903     -969.89857      746.09321    
  37720000   267.70717     -351.3487      -272.90173     -351.18101      0              4512.3307      46.197489      20.047001      20.857         19316.108      4908.7091      3110.7138      5517.5692      595.9654       1401.6428     -80.99836     
  37720500   280.98938     -350.03252     -267.69343     -349.85704      0              6558.3297      46.377755      20.047001      20.857         19391.481      8637.6425      5071.723       5965.6237      1072.9431      1923.9154     -1073.3412    
  37721000   276.65607     -346.101       -265.03171     -345.9816       0              7629.6891      46.405392      20.047001      20.857         19403.036      8075.7604      8739.1578      6074.1491      31.549969      268.30998      990.71087    
  37721500   275.4764      -346.90132     -266.17771     -346.72705      0              4196.6175      46.204366      20.047001      20.857         19318.983      4502.7168      3932.8117      4154.3239      1646.7614     -261.83146     -437.69319    
  37722000   270.67513     -351.19762     -271.88094     -351.03152      0              4938.2337      46.139232      20.047001      20.857         19291.749      5077.0227      5635.5163      4102.1622     -994.77622      2082.195      -607.12782    
  37722500   267.94463     -351.42547     -272.90892     -351.26731      0              4944.6091      46.296941      20.047001      20.857         19357.691      6378.3233      5643.8849      2811.619      -176.05292     -444.71837     -477.33318    
  37723000   274.05931     -351.64649     -271.33814     -351.47105      0              3650.7801      46.517582      20.047001      20.857         19449.946      4690.8729      2839.153       3422.3144      1271.0653      1752.2858      238.04126    
  37723500   272.99266     -352.02619     -272.0304      -351.86369      0              4144.8138      46.720163      20.047001      20.857         19534.649      5927.1878      3212.5683      3294.6853      153.68122     -951.60305     -264.81641    
  37724000   273.63414     -350.52776     -270.344       -350.36336      0              4424.4032      46.745011      20.047001      20.857         19545.038      4464.9934      6358.1809      2450.0354      692.32411      733.08596      1231.5986    
  37724500   266.5377      -348.37634     -270.27207     -348.22924      0              3150.1778      46.407474      20.047001      20.857         19403.907      3143.757       3277.794       3028.9823      1379.4069      1495.7729      1274.5299    
  37725000   275.75853     -351.91743     -271.11115     -351.75337      0              6721.7226      46.272519      20.047001      20.857         19347.48       8904.3365      6379.6227      4881.2086     -286.67931      1205.8442      295.72791    
  37725500   267.41287     -350.63335     -272.27262     -350.49986      0              1983.7373      46.673322      20.047001      20.857         19515.063      3846.1628      1927.2215      177.82751     -405.25884     -648.82864      1376.8478    
  37726000   270.05041     -350.93088     -271.79726     -350.76255      0              5199.8433      46.575664      20.047001      20.857         19474.231      6025.3442      4021.514       5552.6716      59.459258      251.32141      976.73275    
  37726500   275.93911     -349.03044     -268.17124     -348.87953      0              4885.8181      46.226127      20.047001      20.857         19328.082      5235.8316      4554.3069      4867.3159      612.04652      497.84671     -321.3287     
  37727000   270.06431     -347.85091     -268.71322     -347.67458      0              4869.1577      46.425825      20.047001      20.857         19411.58       4217.3064      4918.5771      5471.5895      94.18842      -90.239347      1315.5485    
  37727500   269.83471     -350.14717     -271.07676     -349.98935      0              2289.5767      46.966432      20.047001      20.857         19637.618      2844.5847      1937.6103      2086.5351     -234.71933     -809.15179      899.54995    
  37728000   273.43875     -351.42738     -271.30087     -351.27503      0              6121.9532      46.657601      20.047001      20.857         19508.49       7450.0299      5213.5458      5702.284       866.49156      1617.206      -625.91863    
  37728500   274.51805     -352.14037     -271.69759     -351.97571      0              3583.7298      46.594024      20.047001      20.857         19481.907      4300.2443      1861.4547      4589.4903      175.03542      633.29443     -832.03979    
  37729000   263.81232     -347.32174     -270.01609     -347.16258      0              4011.7997      46.561484      20.047001      20.857         19468.302      5210.9834      3757.7056      3066.7103      663.14589     -352.51019      1409.9722    
  37729500   276.6517      -351.332       -270.26399     -351.16125      0              2687.7639      46.602953      20.047001      20.857         19485.641      2131.0343      3438.1836      2494.0737     -346.80531     -1015.9005     -377.33697    
  37730000   276.06468     -352.48852     -271.59253     -352.31752      0              4476.8374      46.390739      20.047001      20.857         19396.91       7207.5814      1722.2016      4500.7293      1075.7707      1852.1486      1658.2959    
  37730500   266.90366     -352.02986     -273.81834     -351.873        0              6160.1598      46.422489      20.047001      20.857         19410.185      7818.0094      6614.2579      4048.2121     -572.18029     -1947.5722     -1915.3599    
  37731000   269.90416     -352.78324     -273.69249     -352.62071      0              2911.9889      46.381468      20.047001      20.857         19393.033      5593.8191     -458.3203       3600.4678     -169.74352      1441.3245      965.5021     
  37731500   271.908       -351.98502     -272.30707     -351.81183      0              3257.2654      46.351888      20.047001      20.857         19380.665      3518.9586      3751.0762      2501.7614     -794.76657     -916.73949      567.028      
  37732000   274.46832     -351.48751     -271.0593      -351.32799      0              5338.2578      46.645701      20.047001      20.857         19503.514      4699.5805      5540.2828      5774.9101      2119.3776      78.065902     -44.104684    
  37732500   270.4587      -350.65733     -271.40408     -350.50459      0              2611.9143      46.543304      20.047001      20.857         19460.7        2999.0835      2983.6532      1853.0063      1140.9763     -481.50482      2382.0776    
  37733000   269.72839     -351.5206      -272.48135     -351.34646      0              3888.7742      46.255521      20.047001      20.857         19340.372      5193.18        2679.2006      3793.9419      486.98928     -2224.236      -529.90399    
  37733500   274.79368     -349.16176     -268.63821     -348.9929       0              3956.007       46.349663      20.047001      20.857         19379.735      3609.3971      2365.905       5892.7188      1543.4194     -705.3035      -821.62439    
  37734000   272.40817     -351.74768     -271.92316     -351.57217      0              5232.6896      46.554138      20.047001      20.857         19465.23       6021.6984      3519.5966      6156.7737     -43.276848      704.23801      891.43343    
  37734500   266.99973     -349.89596     -271.65629     -349.7411       0              2787.2394      46.581756      20.047001      20.857         19476.778      2494.3745      4670.8945      1196.4494      15.536025     -1142.8205     -1941.5505    
  37735000   271.38853     -351.00136     -271.47563     -350.85401      0              5849.8583      46.287934      20.047001      20.857         19353.925      9627.1605      3388.4121      4534.0022     -310.77148     -900.10876      578.05841    
  37735500   270.03397     -348.18404     -269.05525     -348.01505      0              6392.0205      46.154041      20.047001      20.857         19297.942      7659.6259      5316.4366      6199.999      -852.83742     -1793.6704     -1338.149     
  37736000   264.54558     -350.30518     -272.78466     -350.13935      0              4078.7156      46.476642      20.047001      20.857         19432.828      3330.2044      4538.3394      4367.6029     -450.99386      1120.4891      997.94558    
  37736500   263.10449     -352.55323     -275.455       -352.37847      0              5040.607       46.434343      20.047001      20.857         19415.141      3178.5058      7618.2789      4325.0363      433.80248      618.8981      -200.27469    
  37737000   270.2348      -353.25743     -274.06978     -353.11878      0              5901.3083      45.965903      20.047001      20.857         19219.277      3990.3452      6900.7589      6812.8208     -1156.1766     -575.90278     -2300.8728    
  37737500   267.75653     -352.51752     -274.05609     -352.38171      0              3367.1763      45.897071      20.047001      20.857         19190.497      5957.316       2015.7884      2128.4244     -1716.765      -1099.9939      329.93666    
  37738000   259.02763     -349.69876     -273.79518     -349.53476      0              3614.9467      46.27834       20.047001      20.857         19349.913      3288.3351      4048.6376      3507.8675     -1821.7769      1628.7279     -773.45731    
  37738500   274.03297     -352.91445     -272.61381     -352.74627      0              4679.3746      46.499074      20.047001      20.857         19442.207      5001.5459      4125.571       4911.007       884.5493      -542.1953       1371.5337    
  37739000   275.09615     -352.1095      -271.49731     -351.94876      0              5897.1237      46.372478      20.047001      20.857         19389.274      6584.9611      5374.2294      5732.1807     -264.10436     -221.8847      -123.43586    
  37739500   270.60587     -349.81267     -270.51629     -349.65774      0              4510.6395      45.962234      20.047001      20.857         19217.743      4367.2318      5221.3025      3943.3842      1879.2007      589.01988     -2477.7197    
  37740000   272.37611     -354.56798     -274.75286     -354.39799      0              5887.4474      46.047509      20.047001      20.857         19253.398      4624.675       7432.9221      5604.745      -1356.53       -1911.6264     -569.68614    
  37740500   261.77132     -352.05474     -275.34717     -351.88214      0              2776.403       46.350261      20.047001      20.857         19379.985      3062.3842      2498.4589      2768.3658      208.83219     -988.61618     -1077.7337    
  37741000   262.50744     -349.92135     -272.99807     -349.8114       0              4189.6144      46.024753      20.047001      20.857         19243.884      2730.0284      4934.5096      4904.3052     -211.78624      218.11791     -830.86153    
  37741500   269.45555     -353.88104     -274.92174     -353.71486      0              6038.9737      45.886819      20.047001      20.857         19186.211      6622.915       6916.4976      4577.5086     -1123.3144      645.33047      18.907452    
  37742000   272.22359     -348.58241     -268.81198     -348.43625      0              2769.886       46.245764      20.047001      20.857         19336.293      2949.1664      2730.5227      2629.9689     -359.6525       515.86829      2490.5016    
  37742500   273.79027     -350.66319     -270.43367     -350.49842      0              6562.6963      46.550163      20.047001      20.857         19463.568      6536.9988      5623.8542      7527.2359      592.03878     -689.55113     -147.71714    
  37743000   271.07874     -349.50789     -270.07294     -349.3644       0              4353.3647      46.455391      20.047001      20.857         19423.942      4301.6183      4322.7947      4435.6812      1531.1794     -70.449253     -378.37632    
  37743500   264.88441     -352.02374     -274.40393     -351.85908      0              4790.0922      46.299879      20.047001      20.857         19358.919      5903.7209      5238.7335      3227.8222     -1638.3829      13.754204     -1141.2321    
  37744000   272.58379     -352.34538     -272.4694      -352.19252      0              6289.5152      46.269723      20.047001      20.857         19346.31       4210.9922      8170.9586      6486.5947      844.36073     -559.57642      2346.8008    
  37744500   270.0085      -352.1576      -273.03627     -352.00165      0              7156.9111      46.383105      20.047001      20.857         19393.718      4977.6583      7492.6405      9000.4344     -664.66593     -863.26778     -47.359071    
  37745000   273.05661     -351.20679     -271.19226     -351.03454      0              3860.0642      46.270643      20.047001      20.857         19346.695      5429.3453      1949.8053      4201.0419      370.27241     -676.22907      798.22283    
  37745500   274.61974     -351.12303     -270.65045     -350.97049      0              5320.6195      46.387322      20.047001      20.857         19395.481      6188.2751      5117.9981      4655.5852     -484.31978      1285.9199     -1331.1648    
  37746000   275.04209     -351.11323     -270.51689     -350.93758      0              2264.4106      46.53346       20.047001      20.857         19456.584      2564.1197      1309.2547      2919.8573      1256.6182      1932.8883     -2047.4736    
  37746500   264.3947      -347.63523     -270.15892     -347.47285      0              3240.8159      46.402558      20.047001      20.857         19401.851      4180.4047      2983.8844      2558.1586      179.79106      2447.3789     -2175.7757    
  37747000   268.36756     -351.36472     -272.72424     -351.19546      0              4471.5155      46.276567      20.047001      20.857         19349.172      6048.3772      2910.2615      4455.9079     -154.33931      542.989        812.25947    
  37747500   273.62366     -349.63378     -269.45309     -349.46706      0              6036.3323      46.562801      20.047001      20.857         19468.852      5871.6989      5170.5452      7066.753       948.02009      1430.8392      578.32925    
  37748000   269.50881     -349.87382     -270.89891     -349.71771      0              4717.3609      46.681942      20.047001      20.857         19518.668      3466.4717      5285.8476      5399.7634     -40.021979      401.43917      1021.3645    
  37748500   273.58212     -352.15577     -271.98725     -352.00664      0              3680.0568      46.610125      20.047001      20.857         19488.639      4749.641       2896.7426      3393.7867     -1061.7438      1362.1795      372.42101    
  37749000   272.96531     -348.75753     -268.76976     -348.6158       0              3902.938       46.397256      20.047001      20.857         19399.634      6218.2546      985.5487       4505.0105      1724.2805     -204.96927     -189.17392    
  37749500   276.32174     -347.98118     -267.00986     -347.80494      0              4364.4814      46.302564      20.047001      20.857         19360.042      3781.2227      5649.8225      3662.3991      1479.5038     -1955.1417      1188.6991    
  37750000   274.08644     -348.68506     -268.36876     -348.54978      0              3139.5877      46.76096       20.047001      20.857         19551.707      4411.1591      3002.5118      2005.0921      1550.0747     -1036.6905     -2186.6685    
  37750500   272.95524     -349.52181     -269.53698     -349.36633      0              4207.7132      46.598279      20.047001      20.857         19483.686      1690.2291      4837.7976      6095.1127     -385.23061     -188.91661      51.925759    
  37751000   271.55145     -350.05824     -270.48477     -349.90597      0              3451.5202      46.169368      20.047001      20.857         19304.35       6010.4687     -18.696079      4362.7879      84.843033      945.7648      -1532.1257    
  37751500   274.87233     -348.12446     -267.57787     -347.96077      0              3049.8686      46.193624      20.047001      20.857         19314.492      5266.6034      2265.2979      1617.7044      570.24857      1176.2764     -695.52768    
  37752000   278.60676     -348.80548     -267.16458     -348.64463      0              3994.8211      46.343414      20.047001      20.857         19377.122      1071.3599      6036.996       4876.1075     -512.28897     -1313.1537     -424.53773    
  37752500   267.90545     -352.13314     -273.62807     -351.95727      0              5724.4367      46.377606      20.047001      20.857         19391.418      6666.2775      5094.9097      5412.1228     -242.62795      127.01007      764.23919    
  37753000   276.13069     -350.5988      -269.68347     -350.43879      0              7199.064       46.159607      20.047001      20.857         19300.269      6803.1115      7390.3874      7403.6932      1951.6151      1499.5764     -1272.5916    
  37753500   264.54167     -348.47653     -270.95716     -348.31331      0              4106.5798      45.996388      20.047001      20.857         19232.023      3622.3726      4150.1393      4547.2275      1510.8323     -428.1708       1897.7938    
  37754000   266.87133     -348.83758     -270.63554     -348.66375      0              6168.2426      46.232758      20.047001      20.857         19330.855      5851.9035      7201.8367      5450.9878     -1507.0096      483.22966      485.39145    
  37754500   264.55734     -348.10579     -270.58183     -347.93151      0              3325.4379      46.347896      20.047001      20.857         19378.996      4672.7584      1521.0447      3782.5107     -1773.3388     -732.31901      1088.8863    
  37755000   265.6135      -351.28367     -273.45021     -351.11615      0              3803.387       46.320755      20.047001      20.857         19367.648      4869.1512      4159.1933      2381.8166      383.44476      85.262819     -306.2705     
  37755500   272.15022     -351.35624     -271.60731     -351.18003      0              5371.7694      46.147344      20.047001      20.857         19295.141      3395.5684      6093.9843      6625.7555     -173.10446      373.00294     -455.04255    
  37756000   266.17207     -349.88352     -271.88639     -349.70903      0              5921.1412      45.959805      20.047001      20.857         19216.727      6549.804       4258.3908      6955.2287     -1278.5779      1100.2053     -345.22274    
  37756500   264.31165     -350.82042     -273.36845     -350.66765      0              6514.4308      46.137487      20.047001      20.857         19291.02       5041.4558      8412.3936      6089.443      -1024.1005     -1169.2364     -1278.334     
  37757000   267.44582     -351.71487     -273.34449     -351.54701      0              4490.2615      46.384583      20.047001      20.857         19394.336      4379.2218      4442.0351      4649.5276     -1290.5221      933.36608      883.84265    
  37757500   268.07956     -347.36853     -268.81245     -347.20895      0              4332.6655      46.3681        20.047001      20.857         19387.444      4570.2633      4275.4294      4152.3036     -1362.0833     -506.79638     -1615.1446    
  37758000   268.2555      -351.98429     -273.37664     -351.80908      0              3895.9948      46.35927       20.047001      20.857         19383.752      4553.0884      728.54959      6406.3465     -729.21244      22.064509     -1421.8911    
  37758500   271.62686     -347.63275     -268.03718     -347.46926      0              4397.1812      46.411242      20.047001      20.857         19405.482      6907.2865      3693.6452      2590.6118     -1093.2454      895.80859      83.987686    
  37759000   274.66867     -350.83531     -270.34839     -350.66208      0              4460.2893      46.505944      20.047001      20.857         19445.079      4310.1613      3165.956       5904.7506     -570.25539     -69.804649     -1663.3614    
  37759500   267.25955     -350.58749     -272.27169     -350.41501      0              3647.3892      46.332747      20.047001      20.857         19372.662      5229.4256      2699.0392      3013.7027     -1020.5199      211.20422      1661.3557    
  37760000   271.84427     -349.58791     -269.92863     -349.41418      0              4836.5802      46.185592      20.047001      20.857         19311.134      5613.0293      5003.9404      3892.7709      1064.0616     -373.56621      162.48392    
  37760500   265.31346     -349.54469     -271.79915     -349.36848      0              5328.1037      46.584754      20.047001      20.857         19478.031      3877.0587      7652.6598      4454.5926      966.23079      55.819035      670.44575    
  37761000   260.78225     -354.34173     -277.92399     -354.16591      0              3506.0229      46.646926      20.047001      20.857         19504.027      3138.3276      5105.0672      2274.6739     -758.04493     -1100.4083     -1735.6102    
  37761500   269.52383     -351.22509     -272.24578     -351.04995      0              5749.3698      46.222067      20.047001      20.857         19326.384      6397.0308      5745.7934      5105.2854     -841.08943     -1107.1281     -1459.0429    
  37762000   265.3351      -351.74844     -273.99656     -351.57224      0              6190.6381      46.317738      20.047001      20.857         19366.386      6070.0715      8286.6845      4215.1584      546.50483      825.36923      195.05623    
  37762500   266.91163     -352.02554     -273.81169     -351.8495       0              4059.8076      46.555241      20.047001      20.857         19465.691      5867.3904      2758.8787      3553.1538     -776.54521      1996.4297      569.94019    
  37763000   272.28026     -350.56427     -270.77723     -350.39553      0              5992.1595      46.464521      20.047001      20.857         19427.76       4853.3775      6013.99        7109.111       745.67836     -3393.7998     -456.50164    
  37763500   267.99089     -350.13289     -271.60278     -349.96158      0              5193.1138      46.431661      20.047001      20.857         19414.02       6673.3546      3132.3947      5773.5921      1006.1692      1924.6153     -313.24306    
  37764000   261.68295     -350.9803      -274.29863     -350.83072      0              3777.1115      46.484345      20.047001      20.857         19436.048      5527.1841      2608.9525      3195.1978     -764.13452     -390.26544     -2022.179     
  37764500   273.41269     -352.46601     -272.34714     -352.28998      0              3681.0906      46.321533      20.047001      20.857         19367.973      4279.7701      3504.4076      3259.0942     -754.9215       682.51161     -845.60623    
  37765000   274.72719     -351.82887     -271.32481     -351.65711      0              5430.6488      46.418102      20.047001      20.857         19408.351      7675.9198      3344.2446      5271.782      -544.99056     -1067.4518      1387.9857    
  37765500   266.56655     -354.25157     -276.13884     -354.07867      0              5534.229       46.715637      20.047001      20.857         19532.756      6669.6111      6213.8015      3719.2743      1114.8449      1349.1987      122.40052    
  37766000   270.06657     -352.73112     -273.59277     -352.57274      0              5604.4721      46.513086      20.047001      20.857         19448.065      6086.9113      5914.3414      4812.1636     -1286.178      -817.48343      16.663839    
  37766500   273.16079     -349.99605     -269.95099     -349.82408      0              8469.1865      46.029357      20.047001      20.857         19245.808      8590.545       7767.3989      9049.6156      506.6085      -952.13853     -398.1624     
  37767000   265.93826     -348.73846     -270.80984     -348.56345      0              5852.3032      46.240109      20.047001      20.857         19333.928      4846.5174      5837.3649      6873.0272     -1543.2951     -813.52588     -1931.4732    
  37767500   271.76983     -350.61844     -270.98098     -350.44253      0              5611.6699      46.483448      20.047001      20.857         19435.673      5117.2027      4814.0412      6903.7658     -486.9787       60.506129      282.72642    
  37768000   269.34756     -349.25404     -270.32639     -349.08028      0              3484.4931      46.453615      20.047001      20.857         19423.2        3961.3461      3494.1799      2997.9532     -265.81903     -1834.3827     -362.76928    
  37768500   268.82853     -348.70233     -269.92676     -348.52759      0              5615.21        46.148956      20.047001      20.857         19295.815      6493.4777      5782.3894      4569.7627      228.8002      -431.43199      1800.8689    
  37769000   265.6668      -349.79897     -271.94989     -349.62301      0              5653.1191      46.376879      20.047001      20.857         19391.115      5079.0177      8908.8397      2971.5001     -288.72969      842.49322      2283.7219    
  37769500   265.92725     -349.78746     -271.86207     -349.61774      0              2853.765       46.516905      20.047001      20.857         19449.662      1810.8994      4450.1157      2300.2798      1663.8999      359.53593      1909.5235    
  37770000   272.53156     -349.80269     -269.94202     -349.65523      0              5429.0799      46.298707      20.047001      20.857         19358.429      7225.4394      3408.4668      5653.3337     -986.73246     -688.53761     -348.86462    
  37770500   272.18173     -352.93574     -273.17758     -352.78309      0              6380.9634      46.203162      20.047001      20.857         19318.48       8051.9373      6862.0661      4228.8868      197.87696     -1119.8293      206.3688     
  37771000   270.53816     -352.46453     -273.18799     -352.28906      0              4172.8082      46.388885      20.047001      20.857         19396.134      4183.8428      2782.1282      5552.4535     -1492.3268     -220.78408      357.76514    
  37771500   264.19356     -353.82272     -276.40536     -353.65979      0              6807.2292      46.521953      20.047001      20.857         19451.773      7908.0029      5666.8349      6846.8499     -806.30989      535.69773     -1437.1522    
  37772000   263.64974     -350.86579     -273.60778     -350.70248      0              4729.6884      46.305258      20.047001      20.857         19361.168      6731.3416      4020.5687      3437.1551     -1081.3497     -1430.5035     -1544.3771    
  37772500   268.50722     -349.90236     -271.22096     -349.73084      0              4217.1591      46.219118      20.047001      20.857         19325.151      6107.6293      2692.5668      3851.2812      657.83916      516.24952     -1006.143     
  37773000   272.7991      -348.87193     -268.93286     -348.69693      0              6328.8525      46.295808      20.047001      20.857         19357.217      4839.9775      7846.6292      6299.9507      625.9099      -1209.678      -1572.2975    
  37773500   266.62163     -348.60323     -270.47436     -348.4412       0              4043.0205      46.349652      20.047001      20.857         19379.73       4124.272       5015.5801      2989.2094      63.30192      -1000.718       671.32967    
  37774000   280.31124     -349.75844     -267.61806     -349.59074      0              4708.3245      46.067538      20.047001      20.857         19261.773      4727.4956      5188.3146      4209.1633      41.207523      561.94904     -17.047021    
  37774500   272.79402     -348.16929     -268.23171     -348.00654      0              5698.3002      46.056294      20.047001      20.857         19257.071      7074.2795      5696.0069      4324.6141     -34.760467      699.88582      2344.1568    
  37775000   279.51092     -349.19705     -267.2912      -349.03463      0              3712.4459      46.361782      20.047001      20.857         19384.802      3332.6361      3379.9203      4424.7812     -541.08949      188.77661      918.46728    
  37775500   264.45081     -350.37247     -272.87972     -350.19664      0              4090.0225      46.823523      20.047001      20.857         19577.866      3763.4147      4123.6792      4382.9736      1140.645       1035.0966     -618.22261    
  37776000   271.36604     -347.14208     -267.62294     -346.98866      0              3467.5235      46.633442      20.047001      20.857         19498.389      3930.5123      2092.1825      4379.8758     -146.61175      1000.2013     -825.41679    
  37776500   273.66969     -349.52387     -269.32969     -349.35358      0              5308.5754      46.02061       20.047001      20.857         19242.151      7982.3157      2925.8059      5017.6045      1572.705       101.46583      642.64433    
  37777000   266.77509     -350.6251      -272.45126     -350.46287      0              4384.924       46.025194      20.047001      20.857         19244.068      3866.9507      5842.8868      3444.9347      447.89227     -420.18294     -1176.4873    
  37777500   268.35602     -351.08506     -272.44796     -350.90893      0              5102.8072      46.275963      20.047001      20.857         19348.92       5562.4596      4279.4377      5466.5243      885.57399      742.81067      626.50299    
  37778000   265.42815     -349.88575     -272.10661     -349.71602      0              5757.9138      46.558844      20.047001      20.857         19467.198      4624.1287      8312.2395      4337.3733     -377.43214     -1652.0272      1626.1324    
  37778500   278.3542      -349.91786     -268.35097     -349.768        0              4529.4365      46.436281      20.047001      20.857         19415.952      5586.2177      4079.5184      3922.5732     -1571.2883      1470.5326     -130.30211    
  37779000   266.73544     -350.79167     -272.62945     -350.62205      0              4050.8056      46.226609      20.047001      20.857         19328.284      4869.4788      4254.4515      3028.4865     -28.876417     -31.348464     -306.8664     
  37779500   268.37325     -351.87173     -273.22958     -351.73249      0              6677.1919      46.372874      20.047001      20.857         19389.44       7276.1782      6353.7881      6401.6095     -891.82601      893.58176     -934.44707    
  37780000   260.89181     -350.85886     -274.40902     -350.69777      0              4101.5635      46.517733      20.047001      20.857         19450.008      4612.6248      4252.2132      3439.8526     -1134.4221     -2312.1936     -2443.7885    
  37780500   260.86724     -347.59058     -271.14794     -347.43229      0              4302.2357      46.440549      20.047001      20.857         19417.736      4534.409       3419.6504      4952.6476     -476.09264      165.98135      1843.4822    
  37781000   273.36154     -350.07502     -269.97113     -349.90442      0              4526.3466      46.165112      20.047001      20.857         19302.571      5893.1483      2479.1332      5206.7581     -1173.541       747.38945     -406.22915    
  37781500   266.68723     -350.44349     -272.2954      -350.2775       0              5290.9378      46.353589      20.047001      20.857         19381.377      5391.6764      5217.5434      5263.5935      39.653845     -90.81933      -1713.3852    
  37782000   262.23841     -351.77314     -274.9287      -351.60923      0              2228.7935      46.428787      20.047001      20.857         19412.818      457.62145      1401.293       4827.466      -150.97081     -215.95943      759.89598    
  37782500   263.61677     -351.6726      -274.42425     -351.50178      0              3745.245       45.906307      20.047001      20.857         19194.359      5479.2111      3470.2736      2286.2502     -737.29729     -351.55152      649.75109    
  37783000   271.25604     -350.30078     -270.81388     -350.14704      0              5538.2338      45.878015      20.047001      20.857         19182.529      5353.2561      5692.2678      5569.1776     -452.72635     -755.85684      313.81149    
  37783500   268.53488     -352.45436     -273.76485     -352.2805       0              6536.3607      46.323961      20.047001      20.857         19368.989      7813.4109      4933.1113      6862.5598     -297.12128     -584.43329      619.30465    
  37784000   270.98036     -348.49255     -269.08643     -348.31966      0              4419.3168      46.378467      20.047001      20.857         19391.778      5564.0969      4354.3008      3339.5527     -847.99524      1115.6753     -1347.9658    
  37784500   284.27753     -350.20713     -266.90451     -350.03268      0              6155.5574      46.141836      20.047001      20.857         19292.838      7101.9233      5273.3074      6091.4416     -612.8937      -32.754342      421.09798    
  37785000   275.84289     -348.19092     -267.35992     -348.01684      0              5367.6794      45.983242      20.047001      20.857         19226.527      7942.6176      3713.9677      4446.4529     -1095.4955     -536.03258      1467.8772    
  37785500   264.72454     -348.87411     -271.30115     -348.73423      0              4650.8944      46.04881       20.047001      20.857         19253.942      3575.3664      4386.4983      5990.8184      1315.455      -3.6997271     -1913.5354    
  37786000   260.39554     -349.20915     -272.90473     -349.04464      0              2053.9652      46.03914       20.047001      20.857         19249.899      3377.9924      1548.4417      1235.4616     -925.31614      972.94975     -134.41255    
  37786500   267.11507     -349.29238     -271.01892     -349.12485      0              5248.2501      46.077583      20.047001      20.857         19265.973      6552.2353      5112.0023      4080.5128      1335.7227      1025.7265     -594.53201    
  37787000   261.88591     -345.84474     -269.10359     -345.68903      0              2419.0529      46.061842      20.047001      20.857         19259.391      4732.7078     -493.70183      3018.1528     -1134.7966     -234.88172     -484.789      
  37787500   273.06133     -349.32069     -269.30477     -349.17682      0              4065.058       46.120459      20.047001      20.857         19283.9        5564.8734      3884.7864      2745.5141     -953.64084      1954.5237     -1135.0478    
  37788000   266.51771     -352.24656     -274.14814     -352.08947      0              4777.2794      46.231371      20.047001      20.857         19330.275      3551.9356      4769.2718      6010.6306     -1017.6385     -1961.7379     -146.68852    
  37788500   273.66624     -350.81382     -270.62065     -350.6592       0              3484.9964      46.113963      20.047001      20.857         19281.184      2906.9336      3362.2092      4185.8466     -703.64141     -637.54731     -236.83808    
  37789000   263.2927      -347.53055     -270.37717     -347.38407      0              5631.4984      45.99199       20.047001      20.857         19230.185      5313.367       5681.9796      5899.1487     -741.51034      860.35985      744.80919    
  37789500   267.70259     -351.19511     -272.74948     -351.02755      0              4337.702       45.979337      20.047001      20.857         19224.894      6200.1072      3556.4659      3256.5329     -268.90403      604.75011      225.04496    
  37790000   264.15806     -349.2488      -271.84184     -349.07989      0              3959.0371      46.133201      20.047001      20.857         19289.228      4692.4801      3820.9651      3363.666       250.9604      -1424.7495     -2173.9759    
  37790500   268.10205     -351.33115     -272.76847     -351.15787      0              3146.8659      46.18227       20.047001      20.857         19309.745      1126.0565      4186.4044      4128.1368      706.08137     -126.30141      822.83296    
  37791000   273.75155     -352.85441     -272.63624     -352.68684      0              5218.5123      45.891884      20.047001      20.857         19188.328      5879.0947      2933.4201      6843.0221     -1355.0124      1192.6849     -348.52842    
  37791500   270.86956     -351.51152     -272.13787     -351.33561      0              3786.9146      45.797192      20.047001      20.857         19148.735      4245.9127      4577.757       2537.074       515.69305      262.44125      1020.5234    
  37792000   273.04357     -350.83414     -270.82343     -350.6776       0              3828.3776      45.960596      20.047001      20.857         19217.058      6034.3489      3007.3022      2443.4818     -647.91067      1224.5943     -530.54381    
  37792500   274.68167     -348.97074     -268.48002     -348.8119       0              4230.1878      46.201211      20.047001      20.857         19317.664      5352.507       2685.4096      4652.6468     -729.91704     -306.01982     -345.21988    
  37793000   273.90223     -350.70159     -270.43927     -350.54103      0              2959.0239      46.461199      20.047001      20.857         19426.371      1678.5071      2225.4974      4973.0671     -1690.0807      2136.6294     -1360.6265    
  37793500   270.45039     -350.91018     -271.65936     -350.81796      0              6683.0523      46.146542      20.047001      20.857         19294.806      7465.0876      7235.1329      5348.9364     -458.41052     -40.492065     -115.43728    
  37794000   267.93459     -350.48462     -271.97101     -350.33815      0              4132.011       46.302959      20.047001      20.857         19360.207      5153.2095      5107.4242      2135.3995     -1173.3671      1329.175      -575.56467    
  37794500   272.58315     -353.11469     -273.2389      -352.93974      0              4633.0737      46.443818      20.047001      20.857         19419.103      6651.5285      3543.6553      3704.0372      269.90457     -1582.0617     -275.66304    
  37795000   275.26151     -353.33285     -272.67221     -353.18025      0              4069.1402      46.189283      20.047001      20.857         19312.677      5956.4766      1439.7115      4811.2324      402.05488      300.36151      252.3278     
  37795500   270.99634     -352.47557     -273.06477     -352.30269      0              6352.6851      46.131924      20.047001      20.857         19288.694      7260.0432      5651.4818      6146.5303     -438.38833     -9.5899516      1849.605     
  37796000   267.13456     -349.91409     -271.63491     -349.74208      0              3809.6923      46.365206      20.047001      20.857         19386.234      984.57707      5058.87        5385.6297      1741.5241     -1036.6574     -1134.5312    
  37796500   266.80549     -350.42701     -272.24426     -350.2641       0              4773.5637      46.173611      20.047001      20.857         19306.124      4592.2947      5995.5423      3732.8541     -322.554        730.58836      2659.4564    
  37797000   269.28193     -351.43397     -272.52555     -351.26917      0              2353.1066      45.944865      20.047001      20.857         19210.481      3709.0801      753.16192      2597.0777     -552.71503     -1931.4178     -289.39266    
  37797500   267.16986     -351.63389     -273.34437     -351.46655      0              4450.2526      45.969501      20.047001      20.857         19220.782      4093.8047      5193.1101      4063.843       1290.8711      1067.7692      539.98701    
  37798000   266.66288     -349.81764     -271.67668     -349.64293      0              5056.8424      46.393841      20.047001      20.857         19398.207      4757.0498      4710.4046      5703.0729     -1187.4818     -1230.0008      1190.504     
  37798500   260.59399     -350.57763     -274.21505     -350.40429      0              4435.7721      46.713313      20.047001      20.857         19531.784      6665.7767      3900.9851      2740.5545     -521.06395      1639.1843     -576.2311     
  37799000   278.67734     -351.64507     -269.98348     -351.47005      0              6260.3145      46.225642      20.047001      20.857         19327.879      5499.1498      5568.5423      7713.2514     -1367.9226     -1585.9771     -981.58843    
  37799500   273.64383     -349.69563     -269.50903     -349.52557      0              4750.4468      46.14019       20.047001      20.857         19292.15       4702.007       4812.724       4736.6095     -1353.1187     -2379.4799     -19.756638    
  37800000   264.078       -349.96184     -272.57834     -349.78585      0              4420.7891      46.37408       20.047001      20.857         19389.944      3050.2281      4063.8674      6148.2719      876.57958     -605.03836     -1373.4002    
  37800500   271.14008     -349.34239     -269.88946     -349.17357      0              3796.246       46.381443      20.047001      20.857         19393.023      854.43681      5731.721       4802.5802     -146.9623      -236.97356     -1406.661     
  37801000   269.36845     -349.85837     -270.92459     -349.68841      0              5382.1061      46.118599      20.047001      20.857         19283.122      6824.9227      3435.611       5885.7846      318.43427     -979.43968     -583.15974    
  37801500   281.43271     -351.50729     -269.03829     -351.33598      0              3324.6363      46.14229       20.047001      20.857         19293.028      3406.903       5466.4614      1100.5445      849.74386      328.38838     -42.525546    
  37802000   274.42304     -350.14267     -269.72774     -350.00861      0              5935.9872      46.189742      20.047001      20.857         19312.869      6308.1858      4462.9124      7036.8632      1436.653       84.431828      303.96838    
  37802500   270.83215     -351.92563     -272.56294     -351.76641      0              3351.4258      46.129098      20.047001      20.857         19287.512      1828.6505      3997.3681      4228.2589     -126.39705      1154.9307     -1133.459     
  37803000   267.84313     -350.39763     -271.91082     -350.22226      0              5609.6982      46.042376      20.047001      20.857         19251.252      3370.172       6114.7226      7344.2002      504.74601     -283.49935      948.66603    
  37803500   265.23821     -351.16583     -273.44235     -350.99289      0              4156.4543      46.244727      20.047001      20.857         19335.859      3964.0593      3172.2378      5333.0657     -961.64002      1197.3425     -2220.1073    
  37804000   265.98184     -350.23814     -272.29675     -350.06213      0              3716.4366      46.460468      20.047001      20.857         19426.065      3753.7493      3669.6319      3725.9285     -1170.5834      101.21781      1986.9446    
  37804500   260.44513     -349.4166      -273.09765     -349.26034      0              4652.1236      46.451502      20.047001      20.857         19422.316      6654.644       2734.518       4567.2087      358.48546      350.32361      2358.8381    
  37805000   263.12204     -348.96603     -271.86265     -348.79026      0              4871.2257      46.156787      20.047001      20.857         19299.09       6054.775       3251.1334      5307.7688     -215.78025      1610.9102     -732.09788    
  37805500   272.34315     -348.37587     -268.57041     -348.23439      0              5430.0201      46.035503      20.047001      20.857         19248.379      5570.4681      4859.5106      5860.0816     -70.910341      316.85531     -229.4247     
  37806000   267.64815     -348.47042     -270.04075     -348.32855      0              5231.2793      46.422721      20.047001      20.857         19410.282      6777.2949      4444.8884      4471.6546     -900.18034     -1330.0394      149.88311    
  37806500   266.57287     -351.30481     -273.19023     -351.13316      0              3994.9754      46.574137      20.047001      20.857         19473.592      5131.7666      2255.3975      4597.7621      644.05348      1628.0748     -389.72517    
  37807000   266.0744      -350.00295     -272.03444     -349.82779      0              3265.7166      46.478049      20.047001      20.857         19433.416      4253.9274      4313.9149      1229.3074     -664.2454       1870.6089      166.98354    
  37807500   263.49869     -346.97267     -269.75892     -346.81798      0              2831.9112      46.409179      20.047001      20.857         19404.62       3307.7732      2701.7073      2486.253       529.76484     -731.49846      1865.0019    
  37808000   270.96785     -350.91485     -271.51239     -350.75846      0              5138.6101      46.296002      20.047001      20.857         19357.298      5495.7433      2927.4889      6992.5982     -1920.112       564.07534     -1666.8728    
  37808500   265.47746     -349.84394     -272.05035     -349.6719       0              4085.9876      46.1482        20.047001      20.857         19295.499      4221.59        3691.3493      4345.0237      263.48041     -44.13667       685.64521    
  37809000   274.15425     -349.12118     -268.78501     -348.94763      0              3726.8833      46.241905      20.047001      20.857         19334.679      5336.6262      3297.4064      2546.6173     -112.14553     -525.0451      -1059.7863    
  37809500   268.16473     -350.49183     -271.91079     -350.31895      0              3218.5226      46.258576      20.047001      20.857         19341.65       6377.3002     -111.21945      3389.4871      710.66159     -1384.5546     -403.92298    
  37810000   264.75162     -350.17132     -272.59042     -350.00802      0              3465.6362      46.511671      20.047001      20.857         19447.474      3208.4964      4291.3181      2897.094      -361.84705      2036.4665     -1606.6333    
  37810500   267.41019     -351.45233     -273.09238     -351.27645      0              6053.1431      46.316181      20.047001      20.857         19365.735      8084.8107      4270.5043      5804.1143      469.35019      2721.683       1146.7393    
  37811000   269.7211      -353.26808     -274.23097     -353.10364      0              2343.8889      46.128586      20.047001      20.857         19287.298      3304.5574      2505.2016      1221.9078      732.34782     -1443.0374     -245.46295    
  37811500   274.06333     -350.94969     -270.64016     -350.77443      0              5996.2091      46.376511      20.047001      20.857         19390.961      5648.1542      6135.9031      6204.57        1667.5008     -83.497564      53.713709    
  37812000   269.04014     -350.99997     -272.1624      -350.8356       0              4645.8938      46.595652      20.047001      20.857         19482.588      6094.421       3033.8796      4809.3807      370.23475      1499.256      -932.12227    
  37812500   273.14431     -352.23163     -272.1914      -352.07334      0              3483.6403      46.409265      20.047001      20.857         19404.656      3538.294       2386.1798      4526.4471      591.82338      407.00399      959.71512    
  37813000   269.81564     -351.68345     -272.61863     -351.50753      0              5228.1494      46.202932      20.047001      20.857         19318.384      6986.4393      4417.8685      4280.1405     -742.1797       1705.0935     -1165.9685    
  37813500   273.05648     -349.3385      -269.324       -349.19933      0              4973.3013      46.222604      20.047001      20.857         19326.609      6003.4976      4868.5879      4047.8186     -197.68448     -364.62238      1014.5258    
  37814000   269.60169     -350.3036      -271.30147     -350.14226      0              5164.8852      46.478866      20.047001      20.857         19433.757      3925.6465      7548.3453      4020.6638     -1136.8439      254.95923     -2019.8494    
  37814500   274.06019     -350.82267     -270.51405     -350.67586      0              2289.3606      46.351011      20.047001      20.857         19380.299      483.93701      3645.3111      2738.8336     -244.96524      1831.2781     -6.4791384    
  37815000   272.60984     -353.08264     -273.19903     -352.91646      0              5774.2815      46.111968      20.047001      20.857         19280.35       5337.8721      6453.4915      5531.4809      895.90814      74.787865     -1419.084     
  37815500   272.5788      -351.92396     -272.04945     -351.75101      0              4979.356       46.160403      20.047001      20.857         19300.602      5102.1468      3500.8601      6335.0612     -147.07348     -1045.4526      1379.1501    
  37816000   270.24824     -352.19496     -273.00337     -352.05174      0              4436.5426      46.271921      20.047001      20.857         19347.229      5564.5206      4956.9037      2788.2035      633.71228     -835.53363      1962.6795    
  37816500   270.59282     -350.34007     -271.04751     -350.17066      0              4792.4553      46.064612      20.047001      20.857         19260.549      5043.9662      3052.1296      6281.27        261.13494      111.92539      746.2083     
  37817000   269.54598     -348.81835     -269.83255     -348.65526      0              3776.0087      45.994629      20.047001      20.857         19231.288      4608.3204      3771.0629      2948.6428      1484.5494     -2139.6453     -360.71295    
  37817500   277.08869     -349.41667     -268.22061     -349.25366      0              2691.7108      46.065146      20.047001      20.857         19260.773      1490.1752      4993.5017      1591.4553      69.144983     -1150.9078      1562.9248    
  37818000   268.02628     -350.03338     -271.4929      -349.86162      0              4676.4566      46.066546      20.047001      20.857         19261.358      4898.3455      5525.1872      3605.8371     -1316.2393     -1354.0476      1180.564     
  37818500   269.82844     -349.79916     -270.73059     -349.62352      0              5925.082       46.037739      20.047001      20.857         19249.313      6391.467       6092.5754      5291.2037      698.91527      724.64708     -1015.8922    
  37819000   273.60341     -351.02853     -270.85377     -350.85273      0              6169.3745      46.226712      20.047001      20.857         19328.327      4493.6391      4406.9141      9607.5705     -286.88056     -367.68087      715.93241    
  37819500   268.43957     -350.99638     -272.3348      -350.87487      0              366.75913      46.488777      20.047001      20.857         19437.901     -66.608375      860.28078      306.60498      140.00681     -777.31551      1383.2621    
  37820000   268.23736     -348.79748     -270.19515     -348.62533      0              5969.1968      46.414948      20.047001      20.857         19407.032      6329.1333      6112.5379      5465.9192     -90.38683      -729.16258      65.590663    
  37820500   269.1234      -350.37071     -271.50874     -350.19489      0              4522.697       46.17946       20.047001      20.857         19308.57       4665.2427      4715.4047      4187.4435     -46.045784     -26.788131     -479.22661    
  37821000   270.77891     -349.45939     -270.1123      -349.28846      0              5049.8287      46.335137      20.047001      20.857         19373.661      4979.488       6279.6476      3890.3506      423.53545      488.36413     -370.03278    
  37821500   268.71115     -348.83056     -270.08939     -348.65665      0              4003.8651      46.623247      20.047001      20.857         19494.126      3114.0417      4384.6525      4512.9009      719.236        1774.3984     -72.498554    
  37822000   265.87592     -349.73535     -271.825       -349.56009      0              5526.9233      46.466791      20.047001      20.857         19428.709      5881.1543      5036.9995      5662.6161     -72.720594     -349.84438     -1285.4031    
  37822500   268.38955     -350.58029     -271.93336     -350.44569      0              2496.5281      46.159105      20.047001      20.857         19300.059      2623.2316      3720.6364      1145.7163     -1700.1978      223.94151     -56.226488    
  37823000   266.9647      -352.56678     -274.33738     -352.39647      0              5396.8964      46.264874      20.047001      20.857         19344.283      6924.653       4717.1148      4548.9214     -6.1710743      694.48428     -192.65121    
  37823500   269.41885     -352.30754     -273.35899     -352.13861      0              3676.5143      46.525401      20.047001      20.857         19453.215      3573.552       4185.7966      3270.1943     -1887.2586     -839.16225      3137.1885    
  37824000   274.55668     -350.36197     -269.90787     -350.23051      0              3910.6525      46.562537      20.047001      20.857         19468.742      4290.4407      2894.9656      4546.5511      1582.5487     -1075.7159      852.35847    
  37824500   272.20943     -349.28538     -269.5191      -349.12421      0              6453.9337      46.2315        20.047001      20.857         19330.329      8674.0612      6541.5561      4146.1839      1468.6933      1468.4541      1097.4179    
  37825000   266.58961     -350.72768     -272.60819     -350.57355      0              2365.7149      46.233758      20.047001      20.857         19331.273      2131.5036      3764.5645      1201.0767     -76.311522     -1509.2703      547.16698    
  37825500   273.96441     -348.93634     -268.6558      -348.76707      0              5734.8994      46.564863      20.047001      20.857         19469.714      6312.0625      4296.8998      6595.7358      1226.8204      955.91132      1821.3107    
  37826000   271.81091     -351.70773     -272.05823     -351.5516       0              4000.3803      46.484245      20.047001      20.857         19436.006      7310.8892      1770.2083      2920.0433      494.86496      146.5723       524.30738    
  37826500   272.28013     -349.22454     -269.43755     -349.0747       0              4092.6382      46.26762       20.047001      20.857         19345.431      4948.351       4575.4922      2754.0715      22.052829      1418.9143     -84.262899    
  37827000   267.14068     -348.90577     -270.6248      -348.74345      0              5866.989       46.338124      20.047001      20.857         19374.91       7423.8981      4542.2675      5634.8013      64.509771     -1087.8199     -620.1831     
  37827500   265.28009     -349.56226     -271.82651     -349.41436      0              2686.9516      46.702126      20.047001      20.857         19527.107      1754.1602      4429.7373      1876.9573      45.682153      396.76822      401.64592    
  37828000   268.89616     -349.89064     -271.09526     -349.71846      0              4328.0852      46.550378      20.047001      20.857         19463.658      2621.7348      6668.3457      3694.1752      321.1539       911.20205      346.70452    
  37828500   275.7236      -351.93508     -271.13904     -351.76188      0              4468.9708      46.129319      20.047001      20.857         19287.605      5198.806       5088.8041      3119.3023      13.364406      897.48705      2840.8818    
  37829000   269.403       -351.66819     -272.72429     -351.51097      0              4160.2242      46.165455      20.047001      20.857         19302.714      6474.4352      3402.4725      2603.7648     -1755.2568      64.997546     -293.09807    
  37829500   276.12282     -350.14112     -269.2281      -350.00318      0              3074.1453      46.531313      20.047001      20.857         19455.687      2358.607       3193.5165      3670.3124     -1103.8557      75.379993      445.79807    
  37830000   273.89342     -351.63425     -271.37451     -351.4584       0              4564.5693      46.558137      20.047001      20.857         19466.902      6090.9101      5064.083       2538.7147      2177.2687     -824.89832     -480.95916    
  37830500   265.00059     -349.84051     -272.18666     -349.66594      0              3065.8057      46.455351      20.047001      20.857         19423.925      1486.558       4575.2537      3135.6055     -1498.4038      619.63498     -369.26075    
  37831000   269.90124     -350.33814     -271.24823     -350.16228      0              6567.2765      46.459801      20.047001      20.857         19425.786      9447.652       2902.1973      7351.9801     -354.98522     -539.55504      688.25433    
  37831500   271.39645     -351.21607     -271.68802     -351.05274      0              4243.2549      46.790894      20.047001      20.857         19564.223      6309.907       3029.4833      3390.3744     -427.64854     -1717.0513     -13.824404    
  37832000   269.10536     -349.53621     -270.67953     -349.3834       0              4078.4522      46.706839      20.047001      20.857         19529.077      4483.94        4890.6182      2860.7983      313.4063       1409.6591     -927.82044    
  37832500   271.89426     -350.93582     -271.2619      -350.78385      0              3716.1303      46.400881      20.047001      20.857         19401.15       2799.8306      1796.2289      6552.3312     -435.25313     -378.40048      1699.4001    
  37833000   267.35337     -349.23022     -270.88693     -349.06561      0              3918.1283      46.282153      20.047001      20.857         19351.508      2000.1942      4091.979       5662.2116      1319.273       1483.1215      91.676598    
  37833500   266.48886     -349.72245     -271.63248     -349.54723      0              4436.0543      46.825257      20.047001      20.857         19578.59       4273.669       2719.2078      6315.2862      1221.9027      984.06967     -495.8305     
  37834000   277.58863     -351.39885     -270.05629     -351.23461      0              3705.3654      46.9369        20.047001      20.857         19625.271      3716.114       4496.5655      2903.4165      148.30297      276.10342      901.30206    
  37834500   272.4624      -349.76003     -269.91963     -349.5842       0              3626.9136      46.233585      20.047001      20.857         19331.201      2931.2131      3967.6247      3981.9031      499.79961     -1017.5177     -2244.4662    
  37835000   270.82746     -348.30682     -268.94551     -348.13948      0              5626.8904      46.249263      20.047001      20.857         19337.756      6104.2507      5725.9719      5050.4487     -1243.0133     -134.49443      422.30641    
  37835500   271.60226     -350.64952     -271.06116     -350.49682      0              5251.9321      46.605561      20.047001      20.857         19486.731      7166.708       5225.0126      3364.0756      100.08679      192.63703      417.85133    
  37836000   265.02028     -349.82775     -272.16813     -349.68968      0              761.2194       46.629487      20.047001      20.857         19496.735      866.34694     -63.508647      1480.8199      1818.67       -623.867        44.045062    
  37836500   275.61741     -352.38144     -271.61651     -352.20563      0              6350.6223      46.340956      20.047001      20.857         19376.095      8083.8535      6267.5197      4700.4936      558.8495       89.429026     -1202.4329    
  37837000   272.93128     -352.10435     -272.12655     -351.93025      0              5649.3994      46.14623       20.047001      20.857         19294.675      5925.6604      5765.0924      5257.4456     -451.19198     -1767.9205     -395.37822    
  37837500   270.86581     -351.0106      -271.63804     -350.84718      0              6310.8588      46.445087      20.047001      20.857         19419.634      7104.6845      4843.7739      6984.118       933.17154      1725.5306     -1187.3836    
  37838000   274.02943     -350.69521     -270.39562     -350.52117      0              4759.3368      46.555136      20.047001      20.857         19465.647      2825.9175      8186.7809      3265.312      -318.97204      709.17633      1107.5699    
  37838500   273.69035     -348.10915     -267.90891     -347.96864      0              5048.179       46.430405      20.047001      20.857         19413.495      5078.2188      4548.1319      5518.1863      1122.9641     -312.26584     -76.688693    
  37839000   270.46118     -350.81506     -271.56108     -350.65332      0              2801.0246      46.277177      20.047001      20.857         19349.427      4469.1605      2344.9538      1588.9596     -1840.511      -1043.284       1850.6275    
  37839500   271.62529     -351.58108     -271.98597     -351.4134       0              5692.768       46.379585      20.047001      20.857         19392.246      7890.2535      3038.1739      6149.8767      340.98024      1405.8401      1037.8145    
  37840000   269.02916     -347.65316     -268.81881     -347.47766      0              2573.6172      46.726061      20.047001      20.857         19537.115      2259.0158      2662.7235      2799.1124     -332.32934      917.76147     -1824.646     
  37840500   270.28523     -349.73092     -270.5285      -349.55694      0              5862.9851      46.617437      20.047001      20.857         19491.697      6999.7623      5144.3067      5444.8863     -134.41007      521.97416      782.35581    
  37841000   267.04898     -352.47356     -274.21947     -352.31439      0              3736.7396      46.33915       20.047001      20.857         19375.339      3367.9563      2094.9394      5747.3231     -273.03359     -482.26692      517.07102    
  37841500   271.2115      -349.60618     -270.13233     -349.47138      0              5076.3521      46.166071      20.047001      20.857         19302.971      6039.6789      6208.6921      2980.6853      1170.9472     -755.18522      338.68794    
  37842000   271.16781     -350.14048     -270.67943     -349.97803      0              3275.6344      46.314425      20.047001      20.857         19365.001      4596.0191      2654.7583      2576.126      -957.7517       465.97818     -2367.5432    
  37842500   267.09988     -351.88982     -273.62081     -351.71467      0              6666.5271      46.355966      20.047001      20.857         19382.37       7267.0878      5777.4953      6954.998      -713.66756     -515.83814      1907.1456    
  37843000   266.74626     -352.22327     -274.05788     -352.04782      0              4678.1316      46.360975      20.047001      20.857         19384.465      2858.2664      6781.7755      4394.3528     -395.03842      1397.697      -746.90026    
  37843500   259.86768     -350.14245     -273.9927      -349.99738      0              3409.1389      46.296192      20.047001      20.857         19357.378      2539.8899      6225.004       1462.5228      549.8917       629.10192     -187.68926    
  37844000   266.47634     -349.8784      -271.79211     -349.7119       0              5667.5449      46.318624      20.047001      20.857         19366.757      4384.5584      5758.9012      6859.1752     -10.744439      708.22686     -403.90091    
  37844500   269.33201     -348.61053     -269.68743     -348.46521      0              4707.7021      46.436004      20.047001      20.857         19415.836      4596.2645      3948.2697      5578.5721     -25.287209     -579.47699     -711.71823    
  37845000   273.27108     -347.39458     -267.31721     -347.21893      0              6936.942       46.376711      20.047001      20.857         19391.044      7676.6181      7634.4789      5499.7289      1288.0065     -181.28579     -1777.0074    
  37845500   279.83826     -351.00942     -269.00765     -350.86189      0              4677.1025      46.492698      20.047001      20.857         19439.541      2239.6479      7791.8755      3999.7841     -822.70936     -1440.5222     -991.99367    
  37846000   282.66577     -352.83203     -270.0017      -352.66414      0              4802.2958      46.533332      20.047001      20.857         19456.531      5815.4103      2751.2855      5840.1915     -171.92599     -1462.4027      268.81211    
  37846500   270.15458     -351.17462     -272.01048     -350.99949      0              6137.764       46.374439      20.047001      20.857         19390.094      8073.429       3316.5107      7023.3524     -669.42611      72.704979      1071.9235    
  37847000   273.25176     -349.39622     -269.3245      -349.2211       0              4172.6026      46.495424      20.047001      20.857         19440.68       4810.142       2444.356       5263.3098     -632.21704     -252.02414     -2057.8314    
  37847500   273.34049     -350.97139     -270.87368     -350.84261      0              4323.9402      46.515851      20.047001      20.857         19449.222      3784.0389      4782.3025      4405.4792     -1568.1147     -848.01385      80.234257    
  37848000   272.21082     -352.31102     -272.54434     -352.14333      0              4103.9222      46.347416      20.047001      20.857         19378.796      5476.6479      2934.383       3900.7356      1791.9251      673.73023     -70.375987    
  37848500   266.39837     -349.75116     -271.68771     -349.57933      0              4477.8718      46.475606      20.047001      20.857         19432.394      3603.891       4801.5339      5028.1905      490.58923     -607.63963      1750.071     
  37849000   266.99234     -350.93799     -272.70049     -350.76572      0              5849.795       46.651675      20.047001      20.857         19506.012      6889.5588      4298.917       6360.9093      900.71401      318.33222      1458.6175    
  37849500   267.94101     -351.55255     -273.03706     -351.38812      0              2344.5162      46.804296      20.047001      20.857         19569.826      1298.6174      5038.8298      696.10134      144.87005     -325.72625     -821.1339     
  37850000   268.65963     -349.61629     -270.89022     -349.44049      0              4912.7961      46.565017      20.047001      20.857         19469.779      4057.9494      5867.0885      4813.3503      541.50195      732.90503     -1031.8312    
  37850500   271.88077     -352.86203     -273.19206     -352.70049      0              4337.5031      46.23402       20.047001      20.857         19331.382      4719.0157      4215.5528      4077.941       1208.1627      1579.0631     -263.69861    
  37851000   262.64398     -352.53625     -275.57296     -352.37438      0              3966.0428      46.552436      20.047001      20.857         19464.518      4533.8488      3246.1959      4118.0837      1422.313       1294.5728      2258.5404    
  37851500   273.71052     -351.6955      -271.48935     -351.52373      0              5682.7263      46.826342      20.047001      20.857         19579.044      6604.4798      7326.8947      3116.8045      157.4927       2342.9705      169.81542    
  37852000   271.5069      -348.29473     -268.73432     -348.12446      0              5145.9707      46.454866      20.047001      20.857         19423.722      6087.6654      4407.8415      4942.4052      541.98722     -584.19941      796.65414    
  37852500   278.76685     -348.6517      -266.96389     -348.51983      0              7918.6614      46.320202      20.047001      20.857         19367.417      9705.4733      6913.8032      7136.7076     -97.111181      2001.4582     -742.34737    
  37853000   275.11593     -350.6807      -270.06273     -350.53546      0              3499.0273      46.602506      20.047001      20.857         19485.454      3479.2982      4172.6165      2845.1671     -1487.2327      484.44222     -192.89638    
  37853500   276.93378     -350.11587     -268.9652      -349.96075      0              4883.9583      46.744479      20.047001      20.857         19544.815      4008.6106      5923.9893      4719.275       2472.9986      529.44127      1280.0045    
  37854000   274.4279      -348.1795      -267.76313     -348.0202       0              4336.5796      46.652077      20.047001      20.857         19506.18       6204.533       3400.0252      3405.1805     -934.10875      1932.8932     -189.11151    
  37854500   272.59065     -349.32338     -269.44539     -349.17331      0              6507.2228      46.35931       20.047001      20.857         19383.769      8327.4619      7246.0054      3948.2011      1430.2973     -996.95372     -1417.4751    
  37855000   276.34644     -353.31014     -272.33159     -353.14069      0              4895.0299      46.421378      20.047001      20.857         19409.721      6862.0638      3861.4871      3961.5388      977.68035      1361.9268      965.28603    
  37855500   269.63072     -349.70571     -270.69508     -349.54945      0              3827.2799      46.677584      20.047001      20.857         19516.845      5393.531       2887.8894      3200.4192     -909.72869      322.6896       113.94645    
  37856000   269.3037      -349.29728     -270.38248     -349.12232      0              5614.0229      46.664556      20.047001      20.857         19511.398      9154.0152      3383.0462      4305.0072      297.18772     -1956.3692      862.75124    
  37856500   271.93882     -350.69741     -271.01043     -350.5259       0              4144.5147      46.672206      20.047001      20.857         19514.597      6507.4897      2474.461       3451.5933      103.1768       440.68764      163.23437    
  37857000   274.39552     -352.36665     -271.95978     -352.22222      0              6657.55        46.699359      20.047001      20.857         19525.95       6592.5117      5868.9067      7511.2315      1115.7996     -1577.4372     -651.59       
  37857500   269.97721     -354.99732     -275.88515     -354.83496      0              3588.3422      46.696332      20.047001      20.857         19524.684      4278.277       5038.6066      1448.143      -744.00584     -619.69393     -968.73132    
  37858000   272.39052     -349.64996     -269.83062     -349.47571      0              3972.1836      46.503212      20.047001      20.857         19443.937      4880.4985      3712.3305      3323.7219      1119.6585      52.243233     -270.63873    
  37858500   278.51507     -352.37666     -270.76262     -352.21449      0              6093.009       46.078307      20.047001      20.857         19266.276      7330.0135      5250.9123      5698.1012     -509.57394     -1223.2645      562.346      
  37859000   271.32142     -349.70417     -270.19811     -349.5354       0              6061.4941      46.268419      20.047001      20.857         19345.765      8008.9939      4558.8569      5616.6317      2008.2658      322.59904      1653.2464    
[...]
  39964500   266.92289     -349.79232     -271.57517     -349.62861      0              2524.1298      46.122916      20.047001      20.857         19284.927      1908.8631      988.00344      4675.5228      442.40073      393.622        434.97925    
  39965000   276.13272     -349.78179     -268.86586     -349.60926      0              5308.0999      45.982294      20.047001      20.857         19226.13       6088.2262      6643.0519      3193.0215     -1350.9703      122.17819     -1877.6934    
  39965500   267.6132      -347.43783     -269.0184      -347.27186      0              5141.3927      46.035182      20.047001      20.857         19248.244      2689.8214      4773.5497      7960.8071     -96.155986     -1003.1945      898.52844    
  39966000   272.98033     -349.18399     -269.19181     -349.02455      0              5233.7227      46.201088      20.047001      20.857         19317.613      5398.3919      6832.1902      3470.5858      444.60168      1547.3408      828.53925    
  39966500   269.02017     -351.82603     -272.99431     -351.67501      0              4492.3067      46.076203      20.047001      20.857         19265.396      5371.0179      3064.6654      5041.2369     -1735.3987     -201.97733      1851.007     
  39967000   271.7629      -352.16941     -272.53398     -352.02093      0              5879.36        46.042673      20.047001      20.857         19251.376      7026.3006      5387.8516      5223.9279      306.59361      403.81646     -1554.8656    
  39967500   273.06175     -352.38178     -272.36574     -352.22551      0              6370.4899      46.133645      20.047001      20.857         19289.413      8074.4336      5850.8631      5186.1731      31.882399     -1797.129      -1030.4782    
  39968000   267.0243      -348.62773     -270.38086     -348.46559      0              4702.2387      46.144719      20.047001      20.857         19294.044      5670.0726      3170.5784      5266.0652      213.83691     -194.35691      435.4403     
  39968500   266.57598     -350.38923     -272.27374     -350.22836      0              5477.5729      46.232043      20.047001      20.857         19330.556      5901.9286      5340.329       5190.4611     -451.30238     -631.1879      -342.72893    
  39969000   271.92268     -351.30796     -271.62571     -351.15332      0              4262.1127      45.99159       20.047001      20.857         19230.018      3210.1533      3838.9752      5737.2097      330.89021     -127.25898      888.17893    
  39969500   268.70347     -348.99052     -270.2516      -348.85317      0              4926.5814      45.919897      20.047001      20.857         19200.041      4536.2712      5012.0629      5231.4102     -162.39722      101.86889      1641.5986    
  39970000   270.58906     -349.82056     -270.5291      -349.66113      0              2812.3261      46.094032      20.047001      20.857         19272.851      2459.5073      1644.8598      4332.6111     -320.53792     -1123.5119      1074.7746    
  39970500   270.24622     -347.4019      -268.21091     -347.2337       0              4309.2413      46.03952       20.047001      20.857         19250.058      5562.0539      3182.981       4182.6889     -357.92331      1322.6518      639.43289    
  39971000   273.06529     -350.11616     -270.09909     -349.94596      0              5253.6232      46.044252      20.047001      20.857         19252.036      4350.6206      5065.7151      6344.534       621.84866     -225.02989      68.903626    
  39971500   277.08247     -346.16647     -264.97223     -346.03063      0              4890.3208      46.058088      20.047001      20.857         19257.822      3517.5909      6713.71        4439.6617     -123.24221      1957.4498      756.27666    
  39972000   268.58579     -349.11698     -270.41255     -348.95613      0              5866.9806      46.026305      20.047001      20.857         19244.533      8913.2287      5491.4417      3196.2715     -322.72388     -402.46746      178.61868    
  39972500   263.53029     -349.17235     -271.94935     -349.00257      0              3153.2814      45.810402      20.047001      20.857         19154.259      3096.0229      1605.9886      4757.8326      688.06552     -78.699422      1783.9578    
  39973000   267.03871     -350.71136     -272.46027     -350.57079      0              2809.7028      45.647725      20.047001      20.857         19086.24       5421.3952      946.0267       2061.6863      1072.6889     -267.49047     -196.27441    
  39973500   271.32316     -350.65833     -271.15176     -350.4885       0              4929.8987      45.800026      20.047001      20.857         19149.921      5157.1788      5341.4841      4291.0332     -1496.4005      1650.5791     -388.42203    
  39974000   274.04426     -350.03871     -269.73476     -349.8713       0              3141.7866      45.773362      20.047001      20.857         19138.772      1320.6063      4511.7696      3592.9839      352.34796     -70.532537     -515.7841     
  39974500   272.1822      -349.87255     -270.11425     -349.7002       0              3921.3982      45.793157      20.047001      20.857         19147.048      4950.6319      4123.4369      2690.1259      445.91404     -777.80754      1070.4563    
  39975000   266.86733     -345.84888     -267.64801     -345.68859      0              5542.691       45.980716      20.047001      20.857         19225.471      6607.461       3709.6118      6311.0002     -789.22004     -726.87047     -718.00577    
  39975500   268.57455     -346.05791     -267.35678     -345.90007      0              3042.1936      46.027107      20.047001      20.857         19244.868      2220.3317      3263.1639      3643.0851      112.57795     -237.5836       321.1789     
  39976000   269.16343     -351.21476     -272.34106     -351.05892      0              3663.8545      46.269568      20.047001      20.857         19346.245      2854.5713      4833.3456      3303.6466      562.79172     -574.70096     -737.33815    
  39976500   278.81139     -352.23858     -270.53772     -352.07073      0              6624.4956      45.973069      20.047001      20.857         19222.274      6556.7334      5023.9813      8292.7722     -453.96827      1225.6249     -497.71823    
  39977000   285.09673     -351.12208     -267.57941     -350.95155      0              5723.9996      45.751501      20.047001      20.857         19129.631      8509.1441      4194.9745      4467.8802     -954.80147     -298.89756     -1090.4902    
  39977500   272.16861     -351.01346     -271.25914     -350.84236      0              4917.4946      46.270227      20.047001      20.857         19346.521      5749.2149      4286.2484      4717.0206     -999.51662      2309.1128      2609.1849    
  39978000   262.21049     -347.90529     -271.06903     -347.76926      0              3849.7733      46.48657       20.047001      20.857         19436.979      3869.2168      4149.8828      3530.2202      924.96572     -698.99075     -1369.2814    
  39978500   265.84218     -350.25999     -272.35953     -350.09083      0              7226.9054      45.884754      20.047001      20.857         19185.347      9951.8545      3825.6713      7903.1904     -191.45208      610.7342      -1049.591     
  39979000   278.08326     -351.08641     -269.59891     -350.91688      0              5082.2292      45.587663      20.047001      20.857         19061.127      6717.963       4593.7433      3934.9812     -1072.7776     -1073.2832     -1182.0987    
  39979500   267.93109     -352.806       -274.29342     -352.63384      0              5088.8063      45.815767      20.047001      20.857         19156.502      5487.3311      3210.6929      6568.3949      436.7439       323.08697     -979.17523    
  39980000   277.34174     -351.07957     -269.80936     -350.91542      0              6007.0678      45.950069      20.047001      20.857         19212.657      5941.5933      5719.7864      6359.8238     -714.00969     -977.61335      1159.3811    
  39980500   270.91731     -348.99792     -269.61027     -348.83339      0              4983.1372      45.911146      20.047001      20.857         19196.382      3911.4426      3483.7235      7554.2455      146.56624      293.88001     -1497.2429    
  39981000   279.0443      -350.47573     -268.70661     -350.31725      0              7314.0774      45.867417      20.047001      20.857         19178.098      9342.6222      6212.2986      6387.3114     -598.7718      -485.83974      1820.8372    
  39981500   277.82448     -350.57232     -269.16064     -350.4187       0              4223.5482      46.038765      20.047001      20.857         19249.742      3893.2569      3817.0066      4960.3811      344.57021     -652.34132      961.00417    
  39982000   272.54307     -350.99886     -271.13482     -350.83256      0              4854.3423      46.401147      20.047001      20.857         19401.262      6193.1865      3724.7135      4645.1269     -1759.824       676.25351     -339.95148    
  39982500   271.09871     -348.02641     -268.5856      -347.85653      0              5198.109       46.318329      20.047001      20.857         19366.634      4519.6301      6946.5518      4128.145      -41.743475     -4246.5795      615.40478    
  39983000   277.01572     -350.06589     -268.89121     -349.91125      0              1632.3791      45.920533      20.047001      20.857         19200.307      3272.332       1935.6819     -310.87678     -1385.3707      1198.1607     -1674.0706    
  39983500   270.23997     -349.82899     -270.63983     -349.65795      0              3824.9548      45.673017      20.047001      20.857         19096.816      6464.7303      1974.3811      3035.7528     -164.18253      532.77832     -1279.3759    
  39984000   265.84958     -351.02039     -273.11776     -350.84883      0              3821.6624      45.98972       20.047001      20.857         19229.236      2841.4333      5154.8288      3468.725       639.93565     -1261.3142      1724.9027    
  39984500   268.88443     -349.03836     -270.24642     -348.86901      0              5618.4662      46.262136      20.047001      20.857         19343.138      5304.5202      5127.9397      6422.9387     -315.21226     -274.52104     -509.49412    
  39985000   273.98333     -351.35861     -271.07252     -351.20262      0              2615.4837      46.272273      20.047001      20.857         19347.377      2591.0213      2649.1773      2606.2524     -187.41178     -744.52169      1724.7227    
  39985500   278.91647     -349.14467     -267.41301     -348.98344      0              5211.9387      46.179155      20.047001      20.857         19308.442      5639.9126      5814.6813      4181.2223     -967.03354     -1273.8049      109.97845    
  39986000   271.69758     -350.80848     -271.19219     -350.63681      0              4776.4012      46.209632      20.047001      20.857         19321.185      3669.4377      5027.691       5632.075      -591.86122     -1513.1735      1077.9033    
  39986500   259.42126     -352.6104      -276.59147     -352.44844      0              4694.9418      46.139981      20.047001      20.857         19292.063      4500.7149      6201.1618      3382.9488      445.51324      99.198716      606.27051    
  39987000   269.45536     -353.77741     -274.81816     -353.61087      0              2970.3958      45.862324      20.047001      20.857         19175.969      3950.9684      3887.0771      1073.1417      24.153296     -3360.444       2.9702379    
  39987500   273.36162     -351.2095      -271.1056      -351.03785      0              5549.7238      46.178842      20.047001      20.857         19308.311      6093.0149      3555.9218      7000.2346     -125.68277     -65.768067      623.91537    
  39988000   276.62091     -350.3869      -269.32792     -350.21933      0              3371.6081      46.317407      20.047001      20.857         19366.248      5120.3061      3153.6268      1840.8914     -655.32349      337.42219     -700.62064    
  39988500   268.22533     -351.35833     -272.75952     -351.20489      0              4012.8709      46.286541      20.047001      20.857         19353.342      4415.3814      3317.444       4305.7872      302.14804      1436.9203     -785.12255    
  39989000   278.41854     -353.77223     -272.18648     -353.60331      0              4886.3155      46.331364      20.047001      20.857         19372.084      8382.6487      1853.5347      4422.763      -814.03553     -277.2438       427.4537     
  39989500   275.68815     -351.00533     -270.21968     -350.85481      0              5468.2371      46.215353      20.047001      20.857         19323.577      7167.8778      4871.2142      4365.6193      2378.77       -84.483654      280.4518     
  39990000   276.36712     -350.06538     -269.08076     -349.92232      0              6554.7151      46.210886      20.047001      20.857         19321.709      7296.2741      4264.9307      8102.9405     -442.51802     -786.88332     -52.921468    
  39990500   278.42679     -348.02948     -266.44131     -347.90064      0              4601.024       46.459476      20.047001      20.857         19425.65       7781.0861      2645.1736      3376.8123      1075.7207      376.39475     -820.54601    
  39991000   268.95458     -350.45347     -271.64097     -350.31385      0              3693.8573      46.717592      20.047001      20.857         19533.574      4028.5865      1037.7227      6015.2627     -645.03922     -607.9877       11.409496    
  39991500   272.82276     -354.13576     -274.18976     -353.98845      0              3284.3003      46.521508      20.047001      20.857         19451.587      4445.1314      2632.8754      2774.8942     -1036.5992     -2917.9609      2304.1578    
  39992000   268.14735     -352.07995     -273.50399     -351.9103       0              5735.6345      46.349788      20.047001      20.857         19379.787      5435.1276      5207.7195      6564.0566     -851.43141     -182.72586     -97.720698    
  39992500   272.47043     -351.63892     -271.79616     -351.46862      0              3285.2829      46.529381      20.047001      20.857         19454.879      5689.8609      3054.2986      1111.6892      1858.1929     -43.230693     -755.93898    
  39993000   267.32659     -351.13657     -272.80113     -350.98533      0              4703.0048      46.658381      20.047001      20.857         19508.816      4268.5251      6617.9106      3222.5788     -403.50864     -395.39212      2003.6934    
  39993500   270.04794     -350.26845     -271.13556     -350.11913      0              5881.6001      46.440436      20.047001      20.857         19417.689      4840.536       6176.6653      6627.5991      683.41514     -1781.2291     -620.79741    
  39994000   264.87658     -352.64089     -275.02337     -352.47685      0              4020.7962      46.367688      20.047001      20.857         19387.272      4922.5867      3475.5148      3664.287       9.210728      -1524.0233      1293.1123    
  39994500   258.11043     -352.74404     -277.10924     -352.59036      0              3158.7707      46.705884      20.047001      20.857         19528.678      4243.8436      4587.1193      645.34921     -525.63067     -59.150955      295.98178    
  39995000   263.56749     -351.12805     -273.89415     -350.98993      0              4866.2084      46.707027      20.047001      20.857         19529.156      4115.8593      4903.9319      5578.834       1562.7853      66.102173      1612.6865    
  39995500   269.14253     -353.68547     -274.81789     -353.52085      0              4299.0142      46.367584      20.047001      20.857         19387.228      5662.3036      4415.1983      2819.5408     -2244.5979      25.896988     -1613.2234    
  39996000   280.54169     -353.73905     -271.53115     -353.56689      0              4890.287       46.371419      20.047001      20.857         19388.832      3630.9654      6567.7468      4472.1487     -145.42451     -1508.5306      1257.2204    
  39996500   272.89601     -352.86424     -272.89677     -352.72513      0              4338.2352      46.684473      20.047001      20.857         19519.726      4485.0668      4948.1773      3581.4614      100.59278     -615.3433      -849.46715    
  39997000   272.06628     -352.77276     -273.04843     -352.6108       0              5520.8709      46.495693      20.047001      20.857         19440.793      7719.9516      5641.8582      3200.803      -338.74907     -501.28602     -553.7093     
  39997500   267.39699     -351.25075     -272.89468     -351.0803       0              6299.5738      46.280782      20.047001      20.857         19350.934      8528.2118      4740.4247      5630.0848      339.36344      725.95649     -781.863      
  39998000   275.66901     -353.13043     -272.35039     -352.97758      0              3765.9447      46.475333      20.047001      20.857         19432.28       4797.5538      4506.5485      1993.7317     -118.70698      2281.7661     -35.029126    
  39998500   275.13598     -353.31306     -272.68921     -353.17545      0              4367.898       46.598948      20.047001      20.857         19483.966      3124.1747      5887.1751      4092.3443      845.9785      -396.65835      354.48242    
  39999000   272.9798      -353.17018     -273.17816     -353.02988      0              4469.2918      46.695788      20.047001      20.857         19524.457      4567.955       6123.2048      2716.7157     -120.20109      1119.9305      1564.7351    
  39999500   273.82596     -352.80532     -272.56534     -352.63496      0              2831.8997      46.630445      20.047001      20.857         19497.136      3876.1692      2311.2599      2308.2699      184.77305     -9.1894948      883.3112     
  40000000   268.90822     -353.93969     -275.14078     -353.76814      0              5002.5658      46.493656      20.047001      20.857         19439.941      7671.9873      1855.8886      5479.8215      296.34901     -775.13702      1987.2043    
Loop time of 52626 on 4 procs for 2286500 steps with 2268 atoms

Performance: 1.877 ns/day, 12.787 hours/ns, 43.448 timesteps/s
948.6% CPU use with 4 MPI tasks x no OpenMP threads

MPI task timing breakdown:
Section |  min time  |  avg time  |  max time  |%varavg| %total
---------------------------------------------------------------
Pair    | 28684      | 28835      | 28985      |  62.8 | 54.79
Bond    | 0.26916    | 0.28241    | 0.29614    |   2.3 |  0.00
Neigh   | 740.72     | 757.88     | 768.19     |  38.8 |  1.44
Comm    | 2914.3     | 3070.6     | 3255.1     | 229.6 |  5.83
Output  | 2066.9     | 2066.9     | 2067       |   0.1 |  3.93
Modify  | 17848      | 17888      | 17937      |  24.4 | 33.99
Other   |            | 6.659      |            |       |  0.01

Nlocal:            567 ave         581 max         551 min
Histogram: 1 0 1 0 0 0 0 0 0 2
Nghost:         3733.5 ave        3815 max        3675 min
Histogram: 1 1 0 0 1 0 0 0 0 1
Neighs:              0 ave           0 max           0 min
Histogram: 4 0 0 0 0 0 0 0 0 0
FullNghs:       141947 ave      147601 max      136773 min
Histogram: 2 0 0 0 0 0 0 0 1 1

Total # of neighbors = 567788
Ave neighs/atom = 250.34744
Ave special neighs/atom = 0
Neighbor list builds = 228650
Dangerous builds not checked

unfix		4
unfix		3
unfix		1

write_data	data.final.${pid}
write_data	data.final.0
System init for write_data ...
Generated 0 of 1 mixed pair_coeff terms from geometric mixing rule
write_restart	restart.lmp.${pid}
write_restart	restart.lmp.0
System init for write_restart ...
Generated 0 of 1 mixed pair_coeff terms from geometric mixing rule
Total wall time: 14:37:25
