LAMMPS (23 Jun 2022)
echo both

include		in.partitions
variable        pid world 0
include		in.temp
variable	temperature equal 270.0
variable        tempDamp equal 0.100 # this is 0.1 ps
include		in.pressure
variable        pressure equal 5066.25
variable        pressureDamp equal 1.0 #this is 1ps
include		in.seed
variable        seed world 745823

units           metal
atom_style	full
read_restart	restart.lmp.${pid}
read_restart	restart.lmp.0
Reading restart file ...
  restart file = 23 Jun 2022, LAMMPS = 23 Jun 2022
  restoring atom style full from restart
  orthogonal box = (0.62591922 0 0) to (46.82478 20.047001 20.857)
  4 by 1 by 1 MPI processor grid
Summary of lammps deepmd module ...
  >>> Info of deepmd-kit:
  installed to:       /u/sigbjobo/software/DEEPMD_FROM_SOURCE/deepmd-kit/install
  source:             v2.1.3
  source branch:       master
  source commit:      5a32c49
  source commit at:   2022-07-01 09:52:58 +0800
  surpport model ver.:1.1 
  build float prec:   double
  build with tf inc:  /u/sigbjobo/software/DEEPMD_FROM_SOURCE/tensorflow/install/include;/u/sigbjobo/software/DEEPMD_FROM_SOURCE/tensorflow/install/include
  build with tf lib:  /u/sigbjobo/software/DEEPMD_FROM_SOURCE/tensorflow/install/lib/libtensorflow_cc.so;/u/sigbjobo/software/DEEPMD_FROM_SOURCE/tensorflow/install/lib/libtensorflow_framework.so
  set tf intra_op_parallelism_threads: 0
  set tf inter_op_parallelism_threads: 0
  >>> Info of lammps module:
  use deepmd-kit at:  /u/sigbjobo/software/DEEPMD_FROM_SOURCE/deepmd-kit/install
  source:             v2.1.3
  source branch:      master
  source commit:      5a32c49
  source commit at:   2022-07-01 09:52:58 +0800
  build float prec:   double
  build with tf inc:  /u/sigbjobo/software/DEEPMD_FROM_SOURCE/tensorflow/install/include;/u/sigbjobo/software/DEEPMD_FROM_SOURCE/tensorflow/install/include
  build with tf lib:  /u/sigbjobo/software/DEEPMD_FROM_SOURCE/tensorflow/install/lib/libtensorflow_cc.so;/u/sigbjobo/software/DEEPMD_FROM_SOURCE/tensorflow/install/lib/libtensorflow_framework.so
  restoring pair style deepmd from restart
  2268 atoms
Finding 1-2 1-3 1-4 neighbors ...
  special bond factors lj:    0        0        0       
  special bond factors coul:  0        0        0       
     0 = max # of 1-2 neighbors
     0 = max # of 1-3 neighbors
     0 = max # of 1-4 neighbors
     1 = max # of special neighbors
  special bonds CPU = 0.000 seconds
  read_restart CPU = 0.037 seconds
include 	in.setup
variable	out_freq equal 500
variable	out_freq2 equal 1000
variable	out_freq3 equal 5000

timestep        0.0005

neigh_modify    delay 7 every 1

include         in.deepmd
# This is deepMD model

# create groups ###
#group ox type 2
#group hy type 1

mass 2 15.999
mass 1 1.008

pair_style      deepmd ../graph.pb
pair_coeff      * *

bond_style      none
angle_style     none
dihedral_style  none
improper_style  none
neigh_modify exclude none


neighbor        2.0 bin
neigh_modify    every 10 delay 0 check no

thermo          ${out_freq}
thermo          500
thermo_style 	custom step temp pe etotal epair emol press lx ly lz vol pxx pyy pzz pxy pxz pyz
#thermo_modify	flush yes
restart 	${out_freq} restart.lmp.${pid} restart2.lmp.${pid}
restart 	500 restart.lmp.${pid} restart2.lmp.${pid}
restart 	500 restart.lmp.0 restart2.lmp.${pid}
restart 	500 restart.lmp.0 restart2.lmp.0

include		in.dump
dump            myDump all atom ${out_freq3} dump.water.${pid}
dump            myDump all atom 5000 dump.water.${pid}
dump            myDump all atom 5000 dump.water.0
dump            myDump2 all dcd ${out_freq2} dump.dcd.${pid}
dump            myDump2 all dcd 1000 dump.dcd.${pid}
dump            myDump2 all dcd 1000 dump.dcd.0
dump_modify     myDump append yes
dump_modify     myDump2 append yes


timer           timeout 23:50:00 every 1000
New timer settings: style=normal  mode=nosync  timeout=23:50:00

fix             1 all plumed plumedfile plumed.dat outfile plumed.out
fix             3 all nph x ${pressure} ${pressure} ${pressureDamp}
fix             3 all nph x 5066.25 ${pressure} ${pressureDamp}
fix             3 all nph x 5066.25 5066.25 ${pressureDamp}
fix             3 all nph x 5066.25 5066.25 1
fix             4 all temp/csvr ${temperature} ${temperature} ${tempDamp} ${seed}
fix             4 all temp/csvr 270 ${temperature} ${tempDamp} ${seed}
fix             4 all temp/csvr 270 270 ${tempDamp} ${seed}
fix             4 all temp/csvr 270 270 0.1 ${seed}
fix             4 all temp/csvr 270 270 0.1 745823

run             40000000 upto

CITE-CITE-CITE-CITE-CITE-CITE-CITE-CITE-CITE-CITE-CITE-CITE-CITE

Your simulation uses code contributions which should be cited:

- USER-DEEPMD package:

@article{Wang_ComputPhysCommun_2018_v228_p178,
  author = {Wang, Han and Zhang, Linfeng and Han, Jiequn and E, Weinan},
  doi = {10.1016/j.cpc.2018.03.016},
  url = {https://doi.org/10.1016/j.cpc.2018.03.016},
  year = 2018,
  month = {jul},
  publisher = {Elsevier {BV}},
  volume = 228,
  journal = {Comput. Phys. Commun.},
  title = {{DeePMD-kit: A deep learning package for many-body potential energy representation and molecular dynamics}},
  pages = {178--184}
}

CITE-CITE-CITE-CITE-CITE-CITE-CITE-CITE-CITE-CITE-CITE-CITE-CITE

Generated 0 of 1 mixed pair_coeff terms from geometric mixing rule
Neighbor list info ...
  update every 10 steps, delay 0 steps, check no
  max neighbors/atom: 2000, page size: 100000
  master list distance cutoff = 8
  ghost atom cutoff = 8
  binsize = 4, bins = 12 6 6
  1 neighbor lists, perpetual/occasional/extra = 1 0 0
  (1) pair deepmd, perpetual
      attributes: full, newton on
      pair build: full/bin
      stencil: full/bin/3d
      bin: standard
Per MPI rank memory allocation (min/avg/max) = 6.188 | 6.192 | 6.197 Mbytes
   Step          Temp          PotEng         TotEng         E_pair         E_mol          Press            Lx             Ly             Lz           Volume          Pxx            Pyy            Pzz            Pxy            Pxz            Pyz      
  11354000   266.6472      -344.65973     -266.52337     -344.65973      0              4153.453       46.198861      20.047001      20.857         19316.681      5300.0643      3364.9294      3795.3653      569.12712      2065.9031      115.97115    
  11354500   277.39903     -348.6135      -267.3265      -348.53132      0              4734.8276      46.227801      20.047001      20.857         19328.782      3880.955       6081.0834      4242.4444     -620.37384      2275.6076      558.95205    
  11355000   273.11077     -348.15249     -268.12209     -348.16198      0              3967.089       46.386968      20.047001      20.857         19395.333      4060.4221      2312.7794      5528.0654     -822.14693      127.59848      340.90399    
  11355500   272.17003     -348.97473     -269.22        -348.96853      0              6211.4208      46.533829      20.047001      20.857         19456.738      9446.3904      5069.5911      4118.2811     -1254.4622      1195.8571      277.99802    
  11356000   276.11831     -347.08052     -266.16881     -347.08774      0              4280.9449      46.605168      20.047001      20.857         19486.567      6983.4322      2129.652       3729.7505     -868.5022       904.35784      525.16291    
  11356500   277.36885     -346.11757     -264.83941     -346.1343       0              3564.1567      46.294789      20.047001      20.857         19356.791      4653.1011      1631.3957      4407.9732     -269.65029     -3183.4847     -502.18195    
  11357000   274.8724      -346.86286     -266.31625     -346.78813      0              6111.5918      46.265524      20.047001      20.857         19344.555      7150.2493      5474.9221      5709.604       1113.1148      752.3331       90.284855    
  11357500   261.2709      -346.08027     -269.51933     -346.05577      0              4615.7705      46.66553       20.047001      20.857         19511.806      2860.5361      6673.9118      4312.8635     -365.26057      563.32348     -1063.9721    
  11358000   265.19728     -348.10202     -270.39053     -348.10551      0              3277.6978      46.758512      20.047001      20.857         19550.683      3724.4905      3020.7589      3087.8441     -583.32192      322.23645      1334.202     
  11358500   267.58173     -348.07833     -269.66812     -348.03541      0              3617.5027      46.330094      20.047001      20.857         19371.553      6892.5494      1072.1087      2887.8501     -192.09421      218.93312      889.36217    
  11359000   269.44293     -347.87915     -268.92355     -347.85624      0              5872.734       46.000237      20.047001      20.857         19233.633      5532.3431      5098.5439      6987.3151     -488.81473     -107.54999      42.474978    
  11359500   270.33301     -349.38876     -270.17233     -349.40467      0              3908.8829      46.312316      20.047001      20.857         19364.119      6690.7561      1965.2769      3070.6156      1090.4946     -688.17939      1416.8426    
  11360000   277.86273     -351.74533     -270.32245     -351.7274       0              3808.7358      46.860403      20.047001      20.857         19593.286      3132.5785      3822.6916      4470.9371      677.41618      818.36887     -339.05392    
  11360500   269.69488     -350.03305     -271.00362     -350.00814      0              4439.8884      46.700683      20.047001      20.857         19526.504      4931.7102      2702.2097      5685.7452      978.96082      571.22931      629.32243    
  11361000   277.0546      -349.20106     -268.01499     -349.16373      0              4377.8801      46.217154      20.047001      20.857         19324.33       4930.658       3827.1894      4375.7929      272.36004     -3.4204583     -235.30146    
  11361500   275.40729     -348.19742     -267.49406     -348.2001       0              4022.5417      46.215982      20.047001      20.857         19323.84       5596.1336      3521.1577      2950.3337     -140.15017     -294.22282     -1854.9728    
  11362000   264.99003     -347.38851     -269.73776     -347.40296      0              4713.4447      46.47207       20.047001      20.857         19430.916      5573.5944      4329.0109      4237.7289     -920.38923      2005.7183     -675.44784    
  11362500   264.62533     -346.09876     -268.55488     -346.1119       0              4481.5614      46.666722      20.047001      20.857         19512.304      6073.9691      4634.2095      2736.5054     -435.40321     -883.98237     -846.61313    
  11363000   276.38481     -346.46659     -265.47679     -346.40573      0              5931.7854      46.480506      20.047001      20.857         19434.443      6410.956       5806.2547      5578.1454      229.97851      1533.6272     -1390.7074    
  11363500   271.46124     -346.25446     -266.70743     -346.23849      0              5538.3896      46.535607      20.047001      20.857         19457.482      7557.3882      4394.1023      4663.6784     -44.945152      122.29655     -30.608708    
  11364000   276.23698     -345.96742     -265.02094     -345.97053      0              5652.3406      46.46824       20.047001      20.857         19429.314      5517.6645      5107.9491      6331.4083     -1217.7605     -1139.6937     -673.54862    
  11364500   277.09016     -343.71912     -262.52263     -343.6317       0              5564.8422      46.461195      20.047001      20.857         19426.369      6796.1894      5522.9501      4375.3873     -921.16227      1303.5871     -384.52339    
  11365000   274.94575     -346.20727     -265.63916     -346.15648      0              5938.4829      46.360745      20.047001      20.857         19384.369      6704.7404      6003.2954      5107.4128     -1173.7521     -349.04288      765.58383    
  11365500   268.83353     -346.6609      -267.88387     -346.63682      0              4485.3541      46.229358      20.047001      20.857         19329.433      3635.8274      6777.0598      3043.1751     -542.85914     -135.28693     -711.5102     
  11366000   267.72354     -345.3639      -266.91214     -345.29653      0              4781.6975      46.416208      20.047001      20.857         19407.559      3270.5985      5143.9003      5930.5936      369.07112      218.94074      1150.4952    
  11366500   272.15714     -345.31811     -265.56716     -345.25524      0              5475.7074      46.468604      20.047001      20.857         19429.467      6386.5349      4216.4641      5824.1231      648.52188      1267.1839     -736.25907    
  11367000   275.03457     -344.90274     -264.3086      -344.91585      0              4721.1265      46.349534      20.047001      20.857         19379.681      5027.1973      4716.2124      4419.9697      77.375781      674.42418     -1200.3451    
  11367500   273.0171      -348.0841      -268.08115     -348.06876      0              5813.3126      46.410962      20.047001      20.857         19405.365      7650.5772      5530.9832      4258.3774      892.3679       1334.8114     -1283.6875    
  11368000   269.26441     -349.31809     -270.4148      -349.29961      0              6198.7718      46.50622       20.047001      20.857         19445.195      5590.2791      3614.4538      9391.5826      193.95869     -224.46722     -602.97278    
  11368500   267.00479     -349.41452     -271.17337     -349.34764      0              3411.7241      46.278726      20.047001      20.857         19350.075      5172.2298      1097.0859      3965.8565     -1113.2998     -444.7406       648.6815     
  11369000   271.61267     -347.76779     -268.17638     -347.70408      0              4447.8877      46.124375      20.047001      20.857         19285.538      5255.5442      4355.3057      3732.8131     -238.49857     -1273.1154     -482.36846    
  11369500   265.94875     -347.02465     -269.09295     -347.05299      0              4275.7153      46.48059       20.047001      20.857         19434.478      3674.6175      4616.9025      4535.6261      933.93575     -1119.306      -394.28322    
  11370000   276.72521     -349.21794     -268.12839     -349.2025       0              4363.4848      46.476534      20.047001      20.857         19432.783      4288.2181      6150.6445      2651.5918      629.53331      208.00133      319.25548    
  11370500   274.10569     -348.50259     -268.18065     -348.46111      0              5974.5303      45.940548      20.047001      20.857         19208.676      5888.1854      5774.5084      6260.897       189.74621     -2292.1246     -1762.9079    
  11371000   268.18755     -347.25671     -268.66897     -347.2238       0              4494.9034      46.191683      20.047001      20.857         19313.68       4214.6991      4286.7069      4983.3043      880.44762     -1881.0818      2866.743     
  11371500   267.26778     -346.70939     -268.39118     -346.71478      0              3368.8635      46.508055      20.047001      20.857         19445.962      316.79281      4423.6238      5366.174      -1615.346      -1399.4946     -134.30867    
  11372000   261.1679      -348.38057     -271.84982     -348.35194      0              3132.463       46.465418      20.047001      20.857         19428.134      3090.0554      2977.0653      3330.2682      376.87813     -216.29448     -636.73161    
  11372500   257.37144     -346.36796     -270.9497      -346.28081      0              3887.9756      46.23226       20.047001      20.857         19330.646      3145.2009      4230.6649      4288.0611      773.01118     -1940.8405      1002.7818    
  11373000   267.0101      -348.27218     -270.02948     -348.24979      0              4716.1816      46.066966      20.047001      20.857         19261.534      5592.1368      5213.1504      3343.2576      325.10749     -860.17211      195.12958    
  11373500   268.86776     -347.94849     -269.16143     -347.90239      0              4127.6723      46.194082      20.047001      20.857         19314.683      4072.8912      4226.3091      4083.8167     -240.72825     -550.05137      379.76974    
  11374000   265.41881     -349.579       -271.8026      -349.48712      0              3889.5072      46.244153      20.047001      20.857         19335.619      5236.1334      3599.6675      2832.7208      406.15818     -1982.1782     -1103.0872    
  11374500   271.50106     -350.0317      -270.473       -349.91921      0              4273.3719      46.319118      20.047001      20.857         19366.964      6796.2164      2275.8607      3748.0387     -1239.5491     -40.350314      177.82398    
  11375000   268.5021      -351.26256     -272.58265     -351.18576      0              5591.9654      46.15925       20.047001      20.857         19300.119      7109.9659      4877.3135      4788.6168      2157.4614      507.51554      871.06214    
  11375500   256.51996     -348.80469     -273.63594     -348.76538      0              4509.547       46.008996      20.047001      20.857         19237.295      6292.9876      4199.4086      3036.2448     -151.96913     -124.59436     -276.01984    
  11376000   272.82272     -350.44012     -270.49413     -350.39888      0              3193.6207      46.133449      20.047001      20.857         19289.331      2032.918       4380.2713      3167.673       929.32455      298.47517     -189.31922    
  11376500   270.91001     -349.00281     -269.61731     -348.97857      0              2809.5503      46.229335      20.047001      20.857         19329.424      3034.2983      2283.4854      3110.8673     -62.026614     -977.08963     -66.960825    
  11377000   264.87434     -349.77432     -272.15746     -349.69831      0              6108.1373      46.132626      20.047001      20.857         19288.987      8374.7512      4793.7         5155.9607     -275.37086     -236.55815     -974.62491    
  11377500   271.53076     -348.76188     -269.19448     -348.71601      0              6877.3715      46.174553      20.047001      20.857         19306.518      10035.292      4520.417       6076.4054     -692.11263     -1275.9409     -1108.5371    
  11378000   276.19096     -347.90219     -266.96919     -347.90982      0              6961.1402      45.997974      20.047001      20.857         19232.686      6947.8517      6421.9799      7513.589       856.94461      891.90685     -19.407538    
  11378500   271.39356     -348.16282     -268.63561     -348.14542      0              5423.5202      46.212808      20.047001      20.857         19322.513      5532.3595      4880.8282      5857.373       510.83293      633.38226      411.09365    
  11379000   273.26262     -344.64324     -264.56834     -344.63124      0              4376.435       46.536039      20.047001      20.857         19457.662      3039.8615      5028.7573      5060.6863      202.00736     -1356.5054      1334.1204    
  11379500   268.83651     -345.85083     -267.07293     -345.84031      0              3196.5348      46.511298      20.047001      20.857         19447.318      3443.4778      3269.7717      2876.3548     -221.34948      162.39629     -480.64866    
  11380000   280.50847     -346.7941      -264.59593     -346.82466      0              7963.6719      46.375261      20.047001      20.857         19390.438      8538.923       8556.1246      6795.9683      1047.5831     -2372.5456      128.70122    
  11380500   266.0899      -347.4097      -269.43664     -347.43042      0              2278.2858      46.547399      20.047001      20.857         19462.412      1701.2017      1916.4573      3217.1984      1900.844       1112.2988      1211.4967    
  11381000   276.7343      -348.09588     -267.00367     -348.10128      0              6152.6488      46.582992      20.047001      20.857         19477.294      5976.6751      6839.0755      5642.1957     -283.3212      -2125.3166     -2226.3007    
  11381500   272.9765      -347.34049     -267.34944     -347.3499       0              4540.1822      46.410234      20.047001      20.857         19405.061      3364.3972      3457.635       6798.5143     -36.704508      439.00465     -263.64049    
  11382000   267.05519     -347.77394     -269.51802     -347.79477      0              1560.3788      46.253082      20.047001      20.857         19339.353      430.32471      1789.9677      2460.8441      27.581775     -347.47037     -1164.5281    
  11382500   269.4924      -347.47598     -268.50588     -347.4819       0              6605.1565      46.510722      20.047001      20.857         19447.077      5397.233       5503.3803      8914.8562      1421.3395      99.994133     -286.32363    
  11383000   264.47183     -348.28521     -270.7863      -348.26514      0              3424.9344      46.817537      20.047001      20.857         19575.363      3717.6386      2547.8782      4009.2866     -1165.9291     -788.20374      780.17462    
  11383500   271.33224     -347.27302     -267.76379     -347.24211      0              3907.042       46.614573      20.047001      20.857         19490.499      5850.2662      3874.6973      1996.1625     -259.86413     -718.40857      705.59782    
  11384000   281.27764     -346.47273     -264.04918     -346.46247      0              5891.3448      46.445634      20.047001      20.857         19419.862      6938.6206      5900.2815      4835.1322      374.81876      956.27495      1466.0971    
  11384500   270.04882     -346.7436      -267.61045     -346.75576      0              4352.6174      46.457033      20.047001      20.857         19424.628      4831.3149      2389.3185      5837.2188      1515.3138     -1016.6982      1464.9805    
  11385000   275.18681     -347.0685      -266.42976     -347.03773      0              3256.407       46.453673      20.047001      20.857         19423.223      4177.8069      4578.1489      1013.2651     -1067.7898      155.04292     -441.11751    
  11385500   273.31964     -349.92983     -269.83822     -349.91775      0              4097.1945      46.517786      20.047001      20.857         19450.03       4351.3475      5003.369       2936.8669     -133.31321      188.72887     -175.29284    
  11386000   266.75922     -348.35236     -270.18317     -348.36971      0              4626.8855      46.545037      20.047001      20.857         19461.425      5596.2299      5441.4912      2842.9352      94.329316     -386.61219     -1225.5093    
  11386500   267.59181     -345.63809     -267.22492     -345.64937      0              3974.957       46.433256      20.047001      20.857         19414.687      1933.6788      6523.8694      3467.3229     -700.94628     -1232.0542     -1275.0964    
  11387000   277.52548     -348.72338     -267.39933     -348.66705      0              4334.9731      46.516507      20.047001      20.857         19449.496      2568.1988      5491.5588      4945.1618      440.04456     -139.8741       899.86354    
  11387500   263.93719     -348.75868     -271.41643     -348.78026      0              5063.5661      46.485268      20.047001      20.857         19436.434      7236.4215      4536.2575      3418.0192     -1346.6214      738.68446      105.59427    
  11388000   266.05363     -349.53464     -271.57221     -349.50478      0              4101.199       46.370124      20.047001      20.857         19388.29       5159.0454      3779.2074      3365.3442      1065.3678     -75.214792      28.608694    
  11388500   268.31325     -352.32281     -273.69824     -352.32746      0              5731.1537      46.102292      20.047001      20.857         19276.304      7098.05        5514.3755      4581.0355     -417.14921     -149.0237      -249.44424    
  11389000   267.01995     -350.76374     -272.51815     -350.79405      0              3341.979       45.969143      20.047001      20.857         19220.632      3756.5982      2644.2469      3625.092       1798.1802      222.78678     -1246.5843    
  11389500   267.39708     -348.84418     -270.48808     -348.84087      0              6005.1608      46.131797      20.047001      20.857         19288.641      7044.427       7770.3655      3200.6898     -343.1054       771.03733     -1161.6189    
  11390000   267.96055     -348.90315     -270.38194     -348.90957      0              4725.1666      46.24163       20.047001      20.857         19334.564      7975.066       3605.6051      2594.8288      813.88731     -1650.9633      2420.8841    
  11390500   266.99861     -348.17654     -269.9372      -348.19085      0              3777.0472      46.318943      20.047001      20.857         19366.89       3751.0691      3091.4862      4488.5864      1185.9633      1289.2643      179.76368    
  11391000   264.27647     -347.68209     -270.24043     -347.69428      0              4512.2754      46.254117      20.047001      20.857         19339.785      2753.9791      7148.0605      3634.7866      214.05508     -1266.9474     -255.45145    
  11391500   261.07378     -345.84709     -269.34392     -345.86949      0              4797.7783      46.233727      20.047001      20.857         19331.26       6029.0239      5047.6403      3316.6708     -1046.2511     -2984.973      -1263.2439    
  11392000   266.53076     -344.1738      -266.07156     -344.20859      0              3634.0867      46.205183      20.047001      20.857         19319.325      2936.6679      2984.4335      4981.1588      1532.4495      144.69396     -445.21557    
  11392500   273.70809     -346.2034      -265.99797     -346.21916      0              3862.8668      45.943336      20.047001      20.857         19209.841      3291.5638      4608.3391      3688.6976      1198.0395      1335.4917      563.92349    
  11393000   272.89564     -347.76563     -267.79828     -347.79276      0              4353.7106      45.924361      20.047001      20.857         19201.908      5342.1606      4696.6005      3022.3708      1386.8228     -2531.3033      231.31939    
  11393500   277.56139     -346.38686     -265.05228     -346.44419      0              3053.0601      46.134712      20.047001      20.857         19289.86       4016.3023      3878.4716      1264.4065      1308.0426     -498.45097      1301.8312    
  11394000   272.46947     -348.67598     -268.8335      -348.6924       0              2997.2028      45.918059      20.047001      20.857         19199.273      1613.3621      3345.5514      4032.6948      741.7199      -505.51376      462.66091    
  11394500   263.14745     -346.48771     -269.37689     -346.49769      0              4708.9878      45.840726      20.047001      20.857         19166.938      4532.1268      4085.0446      5509.7922      176.70959     -255.4187      -131.50177    
  11395000   263.84053     -347.90579     -270.59187     -347.93503      0              3871.7866      46.191652      20.047001      20.857         19313.667      5491.116       3739.9511      2384.2927      1818.2675     -771.23106     -351.13377    
  11395500   268.86973     -346.48327     -267.69564     -346.51513      0              5356.7743      46.094598      20.047001      20.857         19273.087      4749.1552      6203.2682      5117.8994      1913.5455      366.50392     -2132.4498    
  11396000   273.37497     -346.94736     -266.83955     -346.97515      0              6786.3001      45.942167      20.047001      20.857         19209.353      6884.4584      3383.0169      10091.425      2058.6857     -1191.9701      678.52766    
  11396500   273.20195     -347.25498     -267.19786     -347.29905      0              3671.5335      46.38158       20.047001      20.857         19393.08       6821.4201      2606.1576      1587.0228     -361.76826      1434.0385      731.23731    
  11397000   273.36775     -347.32864     -267.22294     -347.36136      0              4743.5964      46.593614      20.047001      20.857         19481.736      5120.2702      4609.665       4500.854       475.48031     -123.58063      1997.0803    
  11397500   271.85005     -346.92455     -267.26358     -346.95387      0              4751.9654      46.197254      20.047001      20.857         19316.01       7898.3122      3945.0243      2412.5598      386.08721      836.90019      1271.3679    
  11398000   257.31366     -345.53244     -270.13111     -345.56205      0              4462.2443      46.117121      20.047001      20.857         19282.504      2519.4785      4641.2288      6226.0257      37.558221     -334.30507      1219.9961    
  11398500   265.70738     -346.09241     -268.23144     -346.10537      0              5394.1039      46.084706      20.047001      20.857         19268.951      4063.4961      5743.0643      6375.7513      495.80582      449.94924      368.57253    
  11399000   266.52038     -347.85556     -269.75636     -347.88092      0              2795.7663      46.067884      20.047001      20.857         19261.918      3766.0315      2454.9081      2166.3593      477.63513     -172.67894      886.62812    
  11399500   269.83728     -350.70621     -271.63505     -350.72151      0              5947.3723      46.003574      20.047001      20.857         19235.028      7098.6811      4763.9225      5979.5133      966.76109     -1287.8692     -23.242969    
  11400000   267.74314     -347.23934     -268.78183     -347.2414       0              4229.193       46.027294      20.047001      20.857         19244.946      4069.0398      4866.1702      3752.3689     -29.314332      94.189685      396.61266    
  11400500   270.96708     -346.43797     -267.03574     -346.46007      0              6080.9225      46.081155      20.047001      20.857         19267.467      4535.9919      7409.2016      6297.5742      594.77594     -1688.0011      692.22623    
  11401000   270.22342     -346.09271     -266.90839     -346.09834      0              5332.5552      46.139253      20.047001      20.857         19291.758      5808.0895      4698.3744      5491.2017      72.796137     -1149.0944      2295.1785    
  11401500   269.49275     -344.33405     -265.36384     -344.36911      0              3608.6167      46.281634      20.047001      20.857         19351.291      4771.7035      3271.5379      2782.6089      220.23304      863.72506     -332.54064    
  11402000   270.6512      -348.47923     -269.16957     -348.49144      0              6496.3193      46.16793       20.047001      20.857         19303.749      7321.2882      6373.0558      5794.6139      436.28844      781.34061     -196.56514    
  11402500   271.38802     -346.91972     -267.39414     -346.93168      0              1499.4445      46.303637      20.047001      20.857         19360.491      2683.4765      956.58001      858.27695      886.22338     -937.52404      695.74531    
  11403000   275.81058     -345.19361     -264.37208     -345.238        0              6130.4994      46.144109      20.047001      20.857         19293.789      8192.866       4349.9837      5848.6485     -166.82969     -591.27696      564.23027    
  11403500   280.04443     -343.56886     -261.50667     -343.5602       0              6709.9306      46.308293      20.047001      20.857         19362.437      8006.7773      6414.3339      5708.6806     -97.619783      1547.4248      1488.9757    
  11404000   270.00392     -345.55532     -266.43533     -345.5819       0              3815.0894      46.648237      20.047001      20.857         19504.575      3974.4977      2839.495       4631.2754     -356.39277     -1069.9855     -473.82925    
  11404500   274.27476     -348.84543     -268.47394     -348.85631      0              5586.8688      46.466162      20.047001      20.857         19428.446      7342.0274      3862.6498      5555.9293      334.59895      600.39715     -674.13178    
  11405000   277.85198     -347.6145      -266.19477     -347.66066      0              7455.0223      46.047001      20.047001      20.857         19253.186      9731.1098      4135.8874      8498.0698     -323.44484     -113.79144     -1446.3295    
  11405500   270.6734      -346.62408     -267.30791     -346.65308      0              2623.9302      46.608781      20.047001      20.857         19488.078      3002.8245      1511.5099      3357.4561     -20.928062      1438.3064     -893.40965    
  11406000   274.97134     -349.4864      -268.91079     -349.4824       0              4590.6435      46.639684      20.047001      20.857         19500.999      5531.3862      3011.5293      5229.0151     -679.98562     -773.25731     -283.45321    
  11406500   275.55589     -346.77088     -266.02398     -346.7825       0              5256.573       46.221714      20.047001      20.857         19326.237      5391.9099      5703.2708      4674.5383     -287.6766       958.09884     -182.86517    
  11407000   269.64887     -347.33629     -268.32034     -347.37285      0              4344.4921      46.117259      20.047001      20.857         19282.562      5606.2556      4242.8156      3184.405      -1136.0775     -678.94399     -1093.9992    
  11407500   262.86176     -345.68326     -268.65615     -345.7143       0              7026.7237      46.367963      20.047001      20.857         19387.387      7642.1832      6776.9553      6661.0327     -136.2641       2131.4689      1416.0319    
  11408000   271.85902     -345.70528     -266.04169     -345.73176      0              5584.8627      46.482473      20.047001      20.857         19435.265      4977.879       6345.1255      5431.5835     -1560.4843      1037.3204      1799.4685    
  11408500   264.63822     -348.31288     -270.76521     -348.32586      0              5884.7191      46.298524      20.047001      20.857         19358.353      7639.2732      4949.7453      5065.139      -562.17944     -2251.2278     -567.29763    
  11409000   271.6708      -347.41178     -267.80334     -347.42955      0              6380.8988      46.414631      20.047001      20.857         19406.9        7073.6841      5932.6018      6136.4105     -1831.0322     -715.55577      225.02088    
  11409500   264.52706     -346.35552     -268.84042     -346.38532      0              3961.4493      46.482097      20.047001      20.857         19435.108      2422.0654      5706.4508      3755.8316      524.78867      1765.8475     -268.91831    
  11410000   276.94466     -345.89392     -264.74007     -345.95373      0              5768.8346      46.21825       20.047001      20.857         19324.788      6730.4786      5217.5064      5358.5189     -1592.1257      1178.662      -2196.402     
  11410500   267.126       -346.08875     -267.81208     -346.11627      0              5473.991       46.206777      20.047001      20.857         19319.991      5883.0092      6020.6762      4518.2877     -1713.4507      895.42271      1688.0883    
  11411000   262.57683     -348.43687     -271.49326     -348.46829      0              3317.3939      46.353709      20.047001      20.857         19381.427      1747.1073      3038.1085      5166.9658     -1043.3904      1209.9788      469.57213    
  11411500   275.45949     -349.41285     -268.6942      -349.43408      0              2379.3726      46.368134      20.047001      20.857         19387.458      2924.6011      1190.3634      3023.1533     -559.71738      985.55162      1321.1015    
  11412000   267.3979      -347.39758     -269.04124     -347.45359      0              2354.0105      46.444575      20.047001      20.857         19419.42       2166.1981      3074.3046      1821.5287     -77.733603     -71.120196      468.57613    
  11412500   272.24329     -346.42431     -266.64811     -346.45457      0              3286.7501      46.561982      20.047001      20.857         19468.51       2517.3868      3066.1682      4276.6953      148.56069      109.42948      1962.5172    
  11413000   270.31737     -348.41849     -269.20665     -348.44687      0              3916.1034      46.43685       20.047001      20.857         19416.19       4661.2136      3829.546       3257.5505      722.8724      -745.59681     -2939.9232    
  11413500   270.91315     -346.78075     -267.39432     -346.80315      0              2270.3014      46.214799      20.047001      20.857         19323.345      4740.9722      1171.9384      897.99357     -1396.6631      1802.401       1071.3429    
  11414000   272.92752     -349.25479     -269.27809     -349.25598      0              6421.019       45.834452      20.047001      20.857         19164.315      7497.4117      6742.6727      5022.9726     -1258.3444      758.79938      580.68891    
  11414500   272.32331     -349.11533     -269.31569     -349.16235      0              6652.7224      45.956205      20.047001      20.857         19215.222      8244.0147      7547.5263      4166.6262     -787.87917      373.28917     -163.29127    
  11415000   265.93692     -346.71112     -268.78289     -346.74077      0              2741.6887      46.182508      20.047001      20.857         19309.844      3137.6178      2693.4894      2393.9588     -962.50414     -1615.3665      2480.1646    
  11415500   271.43285     -345.83382     -266.29511     -345.86317      0              6470.1782      46.100902      20.047001      20.857         19275.723      5504.645       7162.3538      6743.5357     -1242.0212     -14.97886      -1933.7512    
  11416000   273.6987      -346.87658     -266.6739      -346.88141      0              5771.823       45.798694      20.047001      20.857         19149.364      6872.8619      7363.1902      3079.4169     -294.02335      550.7346      -339.83364    
  11416500   274.19787     -349.0078      -268.65885     -349.03893      0              4295.088       45.946582      20.047001      20.857         19211.198      2790.9727      6078.3081      4015.9833     -560.83685     -274.6774       2537.7368    
  11417000   280.59188     -346.2511      -264.02848     -346.28256      0              4056.2899      46.335016      20.047001      20.857         19373.611      4911.4224      4001.0171      3256.4302     -1240.9922      1246.045      -639.24376    
  11417500   268.89524     -346.16317     -267.36806     -346.18807      0              3315.2739      46.257256      20.047001      20.857         19341.098      3225.0118      2967.9291      3752.8807      43.988107      1166.3183     -148.90465    
  11418000   270.66094     -343.51232     -264.1998      -343.54315      0              6195.7554      45.768537      20.047001      20.857         19136.754      7088.1971      7435.7163      4063.3527      540.88926      1276.3238     -533.06222    
  11418500   263.5868      -346.52898     -269.28941     -346.55737      0              6753.1233      45.822151      20.047001      20.857         19159.172      6869.2321      6173.7509      7216.3869     -1836.7719      297.40434      4197.7057    
  11419000   259.43723     -347.92235     -271.89874     -347.96188      0              6176.8894      46.140021      20.047001      20.857         19292.08       6681.0898      5033.7934      6815.7849      1205.8104     -814.69466     -454.35823    
  11419500   265.53796     -347.94739     -270.13608     -347.99615      0              3272.1323      46.425201      20.047001      20.857         19411.319      2935.8897      2606.2125      4274.2948     -1322.8285      175.98122     -460.18004    
  11420000   264.67015     -342.49248     -264.93545     -342.52234      0              5694.9794      46.268684      20.047001      20.857         19345.876      5251.1017      6858.355       4975.4816      644.98069      225.35676     -6.5496372    
  11420500   278.10526     -344.92348     -263.42953     -344.94967      0              5694.8574      46.21488       20.047001      20.857         19323.38       4093.2331      6423.6984      6567.6406     -1133.7358     -299.03975     -131.23225    
  11421000   267.20622     -347.25559     -268.95541     -347.35483      0              1817.9178      46.539432      20.047001      20.857         19459.081      294.9099       858.16686      4300.6768     -348.89898     -350.19297     -2350.6384    
  11421500   268.9005      -347.73603     -268.93937     -347.77487      0              3743.4002      46.370178      20.047001      20.857         19388.313      2402.314       3756.2634      5071.6233     -1049.4241     -474.00942      434.09313    
  11422000   265.22669     -347.60936     -269.88926     -347.64706      0              4021.8938      46.330356      20.047001      20.857         19371.662      6493.2535      3031.7245      2540.7033     -1708.7115     -741.10786     -380.3371     
  11422500   276.29483     -346.79807     -265.83464     -346.81867      0              4665.999       46.382367      20.047001      20.857         19393.409      6215.9628      2459.0524      5322.9818     -1486.5382      127.15278      369.49945    
  11423000   265.71046     -347.40475     -269.54288     -347.43934      0              3229.4501      46.576994      20.047001      20.857         19474.787      3852.9855      1853.3761      3981.9886     -595.4781       110.91902      684.93447    
  11423500   270.92432     -347.40219     -268.01249     -347.45361      0              1902.3801      46.43454       20.047001      20.857         19415.224      3046.042      -644.85139      3305.9498     -280.64158      460.61073     -217.16884    
  11424000   263.45065     -345.43013     -268.23046     -345.44657      0              4955.4525      46.181481      20.047001      20.857         19309.415      5090.1976      5282.5547      4493.6052     -1084.077      -1312.3155     -1139.6871    
  11424500   261.83559     -345.17349     -268.44709     -345.18394      0              5275.6375      46.248256      20.047001      20.857         19337.334      4967.1651      6536.9031      4322.8444      2.7469935     -276.16107     -1844.2978    
  11425000   268.2653      -347.56076     -268.95024     -347.57488      0              5785.6846      46.203468      20.047001      20.857         19318.608      4783.0764      7696.139       4877.8383      2229.723      -1042.723       705.61225    
  11425500   272.01133     -346.30905     -266.60082     -346.33926      0              6062.2621      46.042529      20.047001      20.857         19251.316      8250.907       4713.1799      5222.6994     -1814.6832      1944.8513     -751.03507    
  11426000   276.60196     -343.91409     -262.86066     -343.94235      0              5358.4446      46.107892      20.047001      20.857         19278.646      6304.7018      5982.212       3788.42        1890.3975     -38.359778     -1495.7061    
  11426500   270.33577     -345.96735     -266.75011     -346.00808      0              4832.9983      46.030046      20.047001      20.857         19246.096      6825.4277      3370.1605      4303.4067      953.82847     -1612.5402      0.34291407   
  11427000   272.52956     -347.45861     -267.59852     -347.49659      0              6521.5243      46.118382      20.047001      20.857         19283.032      5925.2961      6595.7215      7043.5552      1427.143      -819.33067     -572.88507    
  11427500   277.05583     -346.29518     -265.10875     -346.32829      0              4773.2274      46.286519      20.047001      20.857         19353.333      4203.5994      5390.3437      4725.7392     -627.21445     -2717.7277      1075.5241    
  11428000   273.2246      -347.2499      -267.18615     -347.27952      0              5399.8303      46.02946       20.047001      20.857         19245.852      7220.0337      4569.0272      4410.43        1007.8686     -787.79207      754.16782    
  11428500   266.53672     -345.86007     -267.75608     -345.90444      0              6336.2625      46.203049      20.047001      20.857         19318.433      8466.2219      4403.4732      6139.0924      1122.0743     -1283.7375      262.38287    
  11429000   268.93642     -347.06782     -268.26064     -347.10119      0              3731.1165      46.488898      20.047001      20.857         19437.952      4570.7984      2182.5202      4440.0308     -1227.5674     -605.98342     -82.487266    
  11429500   272.77025     -348.24405     -268.31344     -348.27343      0              4045.2668      46.455388      20.047001      20.857         19423.941      2264.7411      4569.3152      5301.7442      668.62926      615.84915      763.5969     
  11430000   271.90566     -347.89035     -268.21308     -347.92233      0              4472.42        46.018675      20.047001      20.857         19241.342      4773.72        5197.31        3446.2299     -103.29998      2197.6077      1092.7047    
  11430500   259.28775     -348.63961     -272.65981     -348.67014      0              3352.4452      45.700121      20.047001      20.857         19108.148      1717.6161      4950.7106      3389.0088      1344.1316     -774.83575      850.05845    
  11431000   271.90289     -352.20684     -272.53039     -352.23841      0              4664.5751      46.001996      20.047001      20.857         19234.368      4283.6223      3992.4729      5717.6302     -551.7041       1124.0278     -1459.3338    
  11431500   270.24499     -348.49504     -269.30441     -348.53015      0              5439.0959      46.19901       20.047001      20.857         19316.744      5519.3361      6653.9165      4144.035       1547.0133      521.79975     -171.68498    
  11432000   271.8824      -344.19537     -264.52493     -344.22505      0              4303.417       46.141083      20.047001      20.857         19292.524      4226.9457      4700.8526      3982.4528      163.75653     -2189.5043     -776.44182    
  11432500   269.98724     -349.30958     -270.19448     -349.3418       0              4616.5293      46.054793      20.047001      20.857         19256.444      3708.4959      4484.7048      5656.3873     -355.96194     -730.17182     -158.40119    
  11433000   262.13129     -348.07863     -271.26558     -348.11848      0              5922.8696      45.970716      20.047001      20.857         19221.289      7511.9686      4117.2314      6139.4089     -422.813        533.57841      1287.2691    
  11433500   259.79372     -343.99239     -267.86432     -344.02547      0              6134.6901      46.10692       20.047001      20.857         19278.239      6567.3807      4853.8546      6982.835      -69.793661      305.34286      276.24916    
  11434000   268.82804     -346.45199     -267.67657     -346.48937      0              4717.8071      46.297318      20.047001      20.857         19357.849      4200.1849      4967.0203      4986.2159     -65.451495      808.73724     -1245.1834    
  11434500   267.67648     -347.24304     -268.80506     -347.26921      0              7346.247       46.299122      20.047001      20.857         19358.603      8687.8287      8189.1922      5161.72        1005.1385      1018.6691      1621.4394    
  11435000   269.61688     -347.84042     -268.83385     -347.8409       0              3470.5114      46.262317      20.047001      20.857         19343.214      3240.5104      3402.2196      3768.8042      2597.2849      643.89621      1851.4924    
  11435500   268.80489     -347.87052     -269.10188     -347.90668      0              5278.2921      46.239149      20.047001      20.857         19333.527      5554.389       5249.6859      5030.8012     -539.74616     -136.35449     -2227.6117    
  11436000   265.46478     -346.83915     -269.04928     -346.86861      0              3909.1245      46.205621      20.047001      20.857         19319.508      3242.629       2979.0703      5505.6743     -106.12686      2268.1457      1803.8344    
  11436500   270.99956     -343.09388     -263.68213     -343.12587      0              5950.1606      46.163591      20.047001      20.857         19301.934      5802.7573      6064.9472      5982.7773      191.70472      146.39895     -1258.2869    
  11437000   274.30725     -347.21225     -266.83124     -347.24417      0              3570.4491      46.294082      20.047001      20.857         19356.496      4540.0241      2208.6661      3962.6571     -437.63715     -205.0405       548.45069    
  11437500   266.11443     -346.26686     -268.28662     -346.27882      0              7123.0852      46.566481      20.047001      20.857         19470.391      6953.609       7292.182       7123.4647      502.84589     -110.46262      859.05461    
  11438000   271.63113     -343.40339     -263.80658     -343.44475      0              3894.7007      46.582298      20.047001      20.857         19477.004      4017.5881      5157.2364      2509.2774     -339.97391      710.36843     -347.20719    
  11438500   266.64674     -346.85489     -268.71866     -346.88235      0              3055.0448      46.414126      20.047001      20.857         19406.688      2113.3705      2936.7469      4115.0171     -576.54593     -397.99171      1178.0163    
  11439000   267.60122     -347.18404     -268.76812     -347.19584      0              5820.072       46.306722      20.047001      20.857         19361.781      6986.1464      5141.8082      5332.2614      1153.9181      119.86194     -442.21352    
  11439500   276.3474      -346.18552     -265.20669     -346.19508      0              4771.12        46.388233      20.047001      20.857         19395.862      5405.1847      4586.1537      4322.0216      419.65519     -817.56572     -104.40191    
  11440000   268.25317     -345.90019     -267.29323     -345.94022      0              3326.524       46.448485      20.047001      20.857         19421.055      3568.7259      1901.5184      4509.3277      1808.8307     -1977.5902     -345.35581    
  11440500   266.01492     -348.9349      -270.98382     -348.96945      0              6301.7108      46.23655       20.047001      20.857         19332.44       7038.1447      7713.6211      4153.3666     -1504.5251      732.22193      1172.0026    
  11441000   267.08339     -347.34633     -269.08215     -347.35523      0              4257.312       46.053066      20.047001      20.857         19255.722      6586.3798      2731.8954      3453.6608      374.3309      -447.71495     -827.60043    
  11441500   264.78999     -346.74413     -269.15199     -346.74072      0              4206.9001      46.555101      20.047001      20.857         19465.633      6758.5801      0.83936997     5861.2808     -1094.3736     -113.55384      1180.464     
  11442000   265.12411     -344.32555     -266.6355      -344.35907      0              4806.0219      46.581815      20.047001      20.857         19476.802      4009.2581      5605.8405      4802.9671     -1675.5144      584.12812     -1891.3211    
  11442500   273.41039     -347.77627     -267.65807     -347.78893      0              4652.2446      46.232859      20.047001      20.857         19330.897      7496.8361      2141.8794      4318.0184     -452.03558     -2645.8945      1376.8363    
  11443000   263.88924     -349.52867     -272.20048     -349.70274      0              2037.0597      46.427557      20.047001      20.857         19412.304      4702.3555      1393.4391      15.384645      177.67369     -1311.0073      904.66732    
  11443500   261.42478     -349.91566     -273.30964     -349.91398      0              5671.4021      46.545071      20.047001      20.857         19461.439      7399.7311      6798.7694      2815.7059     -52.27364      -265.74275     -368.37819    
  11444000   259.99267     -348.7713      -272.58494     -348.80904      0              3306.6936      46.521819      20.047001      20.857         19451.717      3291.8323      1789.3233      4838.9253      13.523542      104.05239      1264.9529    
  11444500   269.3218      -346.45393     -267.53382     -346.48693      0              6034.6171      46.394897      20.047001      20.857         19398.648      4889.8573      6454.0181      6759.9758      1274.83        1297.4048     -584.46272    
  11445000   268.81522     -347.8904      -269.11874     -347.93093      0              3986.9314      46.445948      20.047001      20.857         19419.994      7780.9818      3086.152       1093.6604     -1053.548       150.02942     -1218.5947    
  11445500   268.97154     -349.28621     -270.46874     -349.3          0              5743.8389      46.200875      20.047001      20.857         19317.524      5244.4         6666.9311      5320.1856      651.97506     -379.8324      -2005.9606    
  11446000   276.8459      -349.28412     -268.15921     -349.28574      0              7866.5486      46.064455      20.047001      20.857         19260.484      8683.2049      7682.0692      7234.3717      4.5990503     -1248.1886     -1081.9986    
  11446500   269.8163      -346.82632     -267.7613      -346.83813      0              5503.8363      46.456012      20.047001      20.857         19424.202      5243.6507      5769.2737      5498.5846      1022.5683      1251.2907      1448.516     
  11447000   275.38033     -348.72371     -268.02826     -348.75182      0              5192.3193      46.581081      20.047001      20.857         19476.495      5869.0077      6635.0265      3072.9239      859.76604      97.050697      618.50547    
  11447500   264.76946     -347.86476     -270.27864     -347.89833      0              4827.9309      46.177921      20.047001      20.857         19307.926      5035.8537      3608.9652      5838.9738     -575.80369     -75.818637      428.32576    
  11448000   262.92201     -346.9055      -269.86074     -346.94993      0              4535.4586      46.042058      20.047001      20.857         19251.119      6482.5051      3986.2743      3137.5964     -210.39147     -1031.7563      1937.9192    
  11448500   266.53222     -347.18409     -269.08142     -347.20957      0              4888.6815      46.630163      20.047001      20.857         19497.018      5622.1769      4580.6584      4463.2093     -135.69894     -163.95818      407.34614    
  11449000   275.21899     -350.83105     -270.18288     -350.86708      0              3756.7015      46.795603      20.047001      20.857         19566.191      4297.4465      3502.1699      3470.4882      1366.5567     -782.69507     -393.82653    
  11449500   266.0779      -347.03237     -269.06284     -347.05548      0              5925.8887      46.135697      20.047001      20.857         19290.271      5977.3847      8986.1646      2814.1168      1569.5254     -257.30717      591.83558    
  11450000   270.07039     -348.65391     -269.51444     -348.68833      0              7161.3648      46.122617      20.047001      20.857         19284.802      9273.3826      5596.0511      6614.6607     -357.37391     -148.95361     -899.97657    
  11450500   266.92186     -348.21454     -269.9977      -348.25122      0              4223.8468      46.363407      20.047001      20.857         19385.481      5893.6552      4444.0939      2333.7912      2087.2696     -1312.987      -49.455027    
  11451000   270.64929     -349.10807     -269.79896     -349.14251      0              3848.0267      46.523531      20.047001      20.857         19452.433      2761.1773      5663.752       3119.1506      1528.5559     -218.64744     -2154.0778    
  11451500   263.78945     -347.08855     -269.78961     -347.1479       0              3669.7972      46.484623      20.047001      20.857         19436.164      5051.4495      1817.652       4140.2902     -879.5066       1197.8864      1990.2438    
  11452000   268.45888     -348.20958     -269.54233     -348.25301      0              3853.9769      46.292625      20.047001      20.857         19355.886      6568.8609      2433.381       2559.6888      628.98204     -912.20364      1097.593     
  11452500   267.83043     -349.11877     -270.63568     -349.15573      0              5169.2208      46.368567      20.047001      20.857         19387.639      6664.3024      5366.7369      3476.6229      24.868142      740.63629     -385.97469    
  11453000   272.35903     -348.0665      -268.25639     -348.10005      0              4111.6733      46.304907      20.047001      20.857         19361.022      6371.934       2567.9289      3395.1571      992.00628      478.3593      -2577.9028    
  11453500   275.89284     -346.59825     -265.75262     -346.6233       0              4450.4424      46.16578       20.047001      20.857         19302.85       5432.0121      3757.0262      4162.2889     -1065.4289     -95.470446     -246.77588    
  11454000   267.00681     -344.84723     -266.60549     -344.86044      0              6570.217       46.331712      20.047001      20.857         19372.229      7639.405       7202.0755      4869.1704      868.9362      -2109.3589      867.96059    
  11454500   267.53701     -347.09481     -268.69771     -347.12987      0              2010.0325      46.642719      20.047001      20.857         19502.267      3662.8656      2371.4063     -4.1742895      344.1232      -423.10867      625.53662    
  11455000   266.63875     -347.4827      -269.34881     -347.50317      0              4205.5382      46.535047      20.047001      20.857         19457.248      4819.6728      3190.3969      4606.5449      225.78421      980.19033      987.15926    
  11455500   276.93191     -349.54572     -268.3956      -349.5744       0              4519.1254      46.373977      20.047001      20.857         19389.901      3825.442       4254.309       5477.6253      1054.6668     -2542.3915      330.5442     
  11456000   269.84619     -347.06777     -267.994       -347.09126      0              4183.654       46.361566      20.047001      20.857         19384.712      6549.8518      3856.443       2144.6671      235.08321      946.13073      652.87745    
  11456500   266.4596      -347.65176     -269.57038     -347.6611       0              4468.8409      46.383693      20.047001      20.857         19393.964      6569.9749      4038.8132      2797.7346      1366.1785      1464.7055      2065.3193    
  11457000   270.42704     -349.11668     -269.8727      -349.18159      0              1394.6371      46.4413        20.047001      20.857         19418.05       2946.6405      544.36238      692.90834      1159.4637     -814.80015     -1131.8306    
  11457500   271.57905     -349.3175      -269.73595     -349.34165      0              4949.2283      46.49283       20.047001      20.857         19439.596      1768.7135      6910.8887      6168.0826      769.43589     -2171.2327     -593.31514    
  11458000   267.13549     -345.70687     -267.42742     -345.72666      0              4111.4402      46.222149      20.047001      20.857         19326.419      5395.3067      3283.3603      3655.6537      873.07252     -42.95253      -415.93138    
  11458500   278.72878     -350.7965      -269.11984     -350.8452       0              3694.5349      46.076204      20.047001      20.857         19265.396      5437.8177      3031.6952      2614.092       1530.8086      345.12826     -1231.4745    
  11459000   271.80793     -346.78771     -267.13908     -346.81023      0              5208.2336      46.219547      20.047001      20.857         19325.331      6240.5876      4293.407       5090.7062     -666.08965     -1834.09       -281.57985    
  11459500   280.68814     -346.57211     -264.32129     -346.58366      0              4607.5333      46.556189      20.047001      20.857         19466.088      5988.3675      4994.8256      2839.407       768.24894     -631.92524      1566.5769    
  11460000   268.44274     -346.48439     -267.82188     -346.51628      0              3848.5135      46.632577      20.047001      20.857         19498.027      2697.1663      5968.5516      2879.8224      1429.2937      91.462919      1537.9925    
  11460500   272.83925     -344.02521     -264.07437     -344.026        0              4520.0842      46.288413      20.047001      20.857         19354.125      5206.9619      3658.2174      4695.0734      108.05542      553.19091     -83.331572    
  11461000   275.78402     -347.87013     -267.05638     -347.89058      0              4475.4205      46.39442       20.047001      20.857         19398.449      5476.7169      4087.1737      3862.3708      1228.928      -741.15613      1470.4516    
  11461500   276.18579     -347.30682     -266.37534     -347.35377      0              5967.9072      46.704863      20.047001      20.857         19528.251      3946.528       7036.0696      6921.1241     -324.67942      1086.1791      2394.1821    
  11462000   276.10048     -347.45756     -266.55108     -347.49804      0              3558.4153      46.397325      20.047001      20.857         19399.663      2887.4453      4479.1026      3308.6979      126.62948      539.46133      1044.2568    
  11462500   274.90427     -346.06203     -265.50608     -346.09124      0              6057.712       46.054072      20.047001      20.857         19256.142      7524.5765      4824.7865      5823.773       631.1209       633.20997     -419.67476    
  11463000   281.52094     -350.57469     -268.07984     -350.60287      0              6726.6977      46.323773      20.047001      20.857         19368.91       5849.5368      7668.5689      6661.9873      1174.5754      361.31999     -609.59562    
  11463500   268.75357     -346.82163     -268.06803     -346.86393      0              3755.9041      46.636012      20.047001      20.857         19499.463      1082.6463      5722.5249      4462.541       12.936491      717.13447     -52.156349    
  11464000   266.57576     -346.25172     -268.13629     -346.2755       0              3276.8683      46.528745      20.047001      20.857         19454.613      4011.5858      1793.1213      4025.8979      862.37245     -49.392705      641.46234    
  11464500   268.30941     -348.30236     -269.67892     -348.33499      0              5052.6793      46.180589      20.047001      20.857         19309.042      5168.7375      5138.2975      4851.0028      1125.2576     -984.87851      901.40808    
  11465000   269.28697     -346.56434     -267.65444     -346.57569      0              6099.2846      46.075305      20.047001      20.857         19265.02       6736.7432      6274.551       5286.5595      1637.7014      364.91752     -499.78903    
  11465500   270.14634     -348.9638      -269.80208     -348.99997      0              4047.0035      46.320448      20.047001      20.857         19367.52       6186.7182      2081.5675      3872.7248      739.95335      408.68005     -833.50852    
  11466000   272.95097     -351.62038     -271.63681     -351.64447      0              4154.3796      46.288993      20.047001      20.857         19354.368      7366.1188      1379.8379      3717.1822      844.80604     -1015.0313      1547.8287    
  11466500   267.13102     -350.10612     -271.82799     -350.12574      0              4758.6131      46.094667      20.047001      20.857         19273.116      6821.2531      3427.46        4027.1263     -1096.7739      767.86113      1065.9516    
  11467000   269.57815     -349.96121     -270.96598     -349.97343      0              3864.2687      46.119682      20.047001      20.857         19283.575      6595.6814      1667.303       3329.8217     -276.45272     -782.06315      667.10891    
  11467500   268.03429     -347.89848     -269.35565     -347.93361      0              3700.6456      46.440019      20.047001      20.857         19417.515      4777.7378      3497.5933      2826.6056      320.14665      1844.1695     -1660.5236    
  11468000   268.21098     -348.01293     -269.41833     -348.03667      0              5195.1841      46.328194      20.047001      20.857         19370.758      5091.2692      5201.1097      5293.1733      204.48829     -947.37216     -433.60498    
  11468500   272.91282     -346.33605     -266.36365     -346.35459      0              5075.0608      46.155849      20.047001      20.857         19298.697      6420.8199      3823.1704      4981.192       1045.1774     -20.385641     -1271.4999    
  11469000   274.48978     -345.67259     -265.23809     -345.68099      0              4360.1194      46.449572      20.047001      20.857         19421.509      2714.6872      5125.0899      5240.5811      525.73431     -1642.2932     -548.18461    
  11469500   273.73016     -346.91363     -266.70173     -346.94907      0              6646.2074      46.286033      20.047001      20.857         19353.13       7017.9788      6553.9071      6366.7364     -311.14792     -1771.774       1190.7921    
  11470000   268.62066     -349.11089     -270.39624     -349.12768      0              4727.9222      46.103538      20.047001      20.857         19276.825      5384.9093      5228.4234      3570.4339      254.73555     -1534.0177     -801.79703    
  11470500   272.17449     -347.01103     -267.255       -347.04192      0              2351.3008      46.066437      20.047001      20.857         19261.312      2277.2964      2574.8645      2201.7413      157.37361      55.340019      22.97669     
  11471000   267.24072     -347.95868     -269.6484      -347.99252      0              6512.0684      45.99302       20.047001      20.857         19230.615      6681.0377      6012.092       6843.0756      951.96726      419.94896     -1157.3093    
  11471500   259.86167     -347.35722     -271.20924     -347.38466      0              4692.7328      46.213611      20.047001      20.857         19322.849      5755.212       5561.7398      2761.2466      287.9822       981.95555      2055.9476    
  11472000   271.75647     -349.02022     -269.38667     -349.05171      0              3151.8669      46.346465      20.047001      20.857         19378.398      4614.3215      889.97479      3951.3045      1546.7326     -1610.0284     -269.1445     
  11472500   265.41218     -344.69566     -266.9212      -344.71658      0              6381.1941      46.08751       20.047001      20.857         19270.124      6518.563       6903.3019      5721.7174      1849.1038      290.85494      1047.1895    
  11473000   275.37431     -346.02824     -265.33455     -346.0677       0              7598.7592      45.781684      20.047001      20.857         19142.252      8127.9597      8165.9572      6502.3606      75.029366      979.67928      1713.2965    
  11473500   266.18857     -345.78485     -267.78288     -345.83261      0              4611.6739      46.218713      20.047001      20.857         19324.982      6096.8678      3073.0829      4665.0709      2591.1124      708.51964      1157.8555    
  11474000   267.73227     -347.0565      -268.60218     -347.08994      0              5610.9374      46.737846      20.047001      20.857         19542.042      4217.1037      7021.9443      5593.7641      688.79906     -319.10991     -1677.0245    
  11474500   270.51269     -347.31954     -268.05047     -347.343        0              6993.8366      46.222732      20.047001      20.857         19326.663      7025.8718      8257.8688      5697.7693      1748.1215     -1646.5929     -805.74521    
  11475000   271.9806      -347.99133     -268.29211     -348.02101      0              5209.6922      45.978417      20.047001      20.857         19224.509      3475.7645      6198.6821      5954.63        1852.3736     -1350.1936      1742.3161    
  11475500   277.63041     -348.85755     -267.50275     -348.88854      0              6610.716       46.105577      20.047001      20.857         19277.678      6690.3742      8185.0828      4956.6909      722.18974     -181.60119      154.17498    
  11476000   268.38991     -347.59588     -268.94885     -347.67472      0              3421.2398      46.185397      20.047001      20.857         19311.052      3590.3006      1305.2134      5368.2054     -821.13121     -56.595882     -1418.7175    
  11476500   273.63448     -347.24095     -267.05709     -347.26817      0              7075.9369      46.179946      20.047001      20.857         19308.773      8433.4489      6156.8478      6637.514      -1524.6514     -1978.6102      2295.7589    
  11477000   264.81795     -347.81698     -270.21665     -347.85235      0              4377.1237      46.427695      20.047001      20.857         19412.362      3757.9806      3579.1831      5794.2074     -463.61221     -144.07942     -492.72016    
  11477500   267.68119     -346.18557     -267.74622     -346.21271      0              6234.5388      46.37989       20.047001      20.857         19392.374      7585.0401      4109.6621      7008.9142     -631.80874      2181.463      -424.48561    
  11478000   268.42127     -345.4698      -266.81358     -345.49863      0              3289.6903      46.258091      20.047001      20.857         19341.447      3052.5152      3159.6549      3656.9009      466.86223     -15.177578     -615.78323    
  11478500   268.24798     -345.18669     -266.58125     -345.22205      0              5367.0527      46.307428      20.047001      20.857         19362.076      3688.0922      6840.4221      5572.6437      739.8347      -1057.5742      1522.1255    
  11479000   280.10554     -345.72477     -263.64467     -345.76246      0              4066.914       46.165802      20.047001      20.857         19302.859      3535.3752      4402.6279      4262.7391     -478.26065      703.93009     -1033.249     
  11479500   272.44072     -346.23409     -266.40003     -346.26053      0              4488.175       46.178667      20.047001      20.857         19308.238      2567.026       7287.9942      3609.5047      485.10112     -1550.8683     -1450.6592    
  11480000   272.46041     -345.04299     -265.20317     -345.07557      0              4428.2729      46.204215      20.047001      20.857         19318.92       4500.3965      4518.3457      4266.0765      33.5586        467.58618     -51.270596    
  11480500   269.86051     -348.59406     -269.51609     -348.62246      0              4986.1976      46.323796      20.047001      20.857         19368.919      4318.9136      5280.0658      5359.6134      995.53656     -393.37855      1055.4292    
  11481000   266.9235      -345.71304     -267.49571     -345.74985      0              3321.2401      46.255645      20.047001      20.857         19340.424      3802.6299      4394.6223      1766.4682     -1012.022       882.67051     -976.74875    
  11481500   273.73428     -348.10577     -267.89266     -348.13849      0              4904.1656      46.148925      20.047001      20.857         19295.802      4411.9274      6104.2108      4196.3587     -143.61437     -1134.6696      150.66613    
  11482000   264.20924     -347.09182     -269.66986     -347.17411      0              2974.9791      46.362303      20.047001      20.857         19385.02       2539.7519      4233.3691      2151.8164      248.01453     -2097.6942     -515.58245    
  11482500   270.9957      -347.81192     -268.4013      -347.84565      0              2100.4847      46.698734      20.047001      20.857         19525.689      2610.7272      761.75506      2928.972      -214.57545      1155.5987     -360.5648     
  11483000   267.7393      -346.59256     -268.13617     -346.6416       0              4184.4503      46.416879      20.047001      20.857         19407.84       5207.8919      4994.9118      2350.5471      196.40614      1044.4869      1746.6605    
  11483500   267.37748     -345.11504     -266.76468     -345.13301      0              4684.2494      46.062539      20.047001      20.857         19259.682      5841.8884      5789.4455      2421.4142     -571.12917      471.47362      487.79245    
  11484000   274.43504     -349.2116      -268.79314     -349.24161      0              5144.8863      46.210247      20.047001      20.857         19321.442      7105.9559      5618.8657      2709.8372     -826.964        474.44037     -959.54874    
  11484500   272.60256     -346.7251      -266.84362     -346.76211      0              3360.1811      46.431523      20.047001      20.857         19413.962      3607.0022      4727.4283      1746.1129      581.59327      355.72839      1663.3663    
  11485000   262.56299     -348.39663     -271.45707     -348.41222      0              3164.5728      46.395402      20.047001      20.857         19398.859      5330.9         3504.0656      658.75278     -682.29103      51.106474      748.4162     
  11485500   267.16094     -349.37625     -271.08934     -349.38362      0              5241.5406      46.242007      20.047001      20.857         19334.722      6138.1551      3819.657       5766.8097      1836.7265      1602.2988     -41.796127    
  11486000   274.53052     -349.87513     -269.4287      -349.88032      0              4609.5543      46.09886       20.047001      20.857         19274.869      4358.1146      5062.745       4407.8033     -374.35045     -67.902453      734.89655    
  11486500   270.68796     -346.04066     -266.72022     -346.08338      0              2504.1287      46.433415      20.047001      20.857         19414.753      1764.2255      2312.8562      3435.3043      445.77757      683.80994      863.10754    
  11487000   271.25561     -344.68373     -265.19695     -344.6895       0              5037.2064      46.405507      20.047001      20.857         19403.084      5684.6681      3150.2074      6276.7437     -802.48029     -978.07246     -680.08168    
  11487500   267.00524     -346.04648     -267.8052      -346.06018      0              6948.7944      46.16706       20.047001      20.857         19303.385      7315.2543      7406.457       6124.6718     -1515.85        2110.7233     -705.0655     
  11488000   263.53098     -346.29916     -269.07595     -346.34565      0              3597.8947      46.227257      20.047001      20.857         19328.555      4501.5951      2158.9516      4133.1373      1432.2149      126.21895      865.02477    
  11488500   273.38488     -346.39991     -266.28918     -346.4466       0              3407.8975      46.365282      20.047001      20.857         19386.265      4616.6301      4168.6421      1438.4203      116.26777      1086.2487      33.434137    
  11489000   265.9666      -348.14768     -270.21076     -348.21246      0              4640.6861      46.547261      20.047001      20.857         19462.355      3561.9948      3911.401       6448.6623      12.71817      -2040.8525     -1460.6368    
  11489500   268.68534     -347.29243     -268.55883     -347.31402      0              5932.0924      46.470963      20.047001      20.857         19430.453      4228.5924      7476.002       6091.6827     -275.62158     -1530.7707      1208.7115    
  11490000   267.3145      -346.78402     -268.45211     -346.80099      0              4151.3833      46.347222      20.047001      20.857         19378.714      4462.537       3331.2718      4660.341      -863.58293      1277.7489     -608.16669    
  11490500   262.25658     -344.97106     -268.12129     -344.98354      0              2925.0985      46.304439      20.047001      20.857         19360.826      4839.6373      2399.5715      1536.0867      105.10765      1603.5027      538.1352     
  11491000   276.88779     -349.12757     -267.99038     -349.1607       0              5815.7609      46.556094      20.047001      20.857         19466.048      5891.2264      6118.2395      5437.8166     -1691.3096      625.79401     -1097.3177    
  11491500   279.51058     -347.72598     -265.82023     -347.76168      0              2907.2292      46.763495      20.047001      20.857         19552.767      4238.0148      3275.0538      1208.6191     -600.24274     -416.74594      22.739078    
  11492000   271.28793     -346.76822     -267.27197     -346.79907      0              2600.398       46.48174       20.047001      20.857         19434.959      4288.2201      1672.7952      1840.1787     -688.41592      890.18644      618.59264    
  11492500   264.61184     -347.1094      -269.56947     -347.09989      0              7312.88        46.098495      20.047001      20.857         19274.717      7344.2387      6691.8954      7902.5058      701.59778      275.33306      1233.6181    
  11493000   258.42906     -349.75528     -274.0271      -349.76405      0              3446.7271      46.508181      20.047001      20.857         19446.014      2905.6445      4245.7323      3188.8044     -125.64735     -1318.3068      441.0763     
  11493500   270.6921      -347.71341     -268.39176     -347.70976      0              3538.1889      46.586387      20.047001      20.857         19478.714      3191.8643      5607.035       1815.6674     -60.555753      1384.6459     -567.99096    
  11494000   272.99527     -347.12164     -267.12508     -347.13463      0              5265.6012      46.28822       20.047001      20.857         19354.044      4670.1543      6968.083       4158.5663      778.79486     -1204.3757     -121.65967    
  11494500   273.29149     -346.84075     -266.75739     -346.88518      0              4922.5017      46.311028      20.047001      20.857         19363.581      5416.2757      4897.6842      4453.5453      239.31196      1205.0447     -432.19521    
  11495000   263.92332     -347.62027     -270.28209     -347.64696      0              5423.3013      46.391114      20.047001      20.857         19397.067      5247.7946      6969.5822      4052.5271      1318.4608     -17.532417     -648.06837    
  11495500   269.62096     -349.51663     -270.50886     -349.51996      0              4496.4281      46.459984      20.047001      20.857         19425.863      5720.9728      3640.511       4127.8006     -1330.9294     -1028.9131     -176.92324    
  11496000   276.53739     -350.1037      -269.06919     -350.08752      0              4350.3381      46.342232      20.047001      20.857         19376.628      4325.5521      3618.1013      5107.3609      227.01309      409.85659      1065.509     
  11496500   272.30538     -346.92598     -267.13159     -346.94196      0              5820.0801      46.235545      20.047001      20.857         19332.02       6509.5252      5258.2532      5692.462       304.38299     -223.2601       1000.5696    
  11497000   270.61114     -347.3226      -268.02467     -347.34228      0              5182.1396      46.187525      20.047001      20.857         19311.942      4200.6439      4248.4904      7097.2843     -1346.1964      2773.1438     -2242.5863    
  11497500   273.0905      -347.6967      -267.67224     -347.71886      0              5546.786       46.093793      20.047001      20.857         19272.75       4657.3509      5232.973       6750.0341      1722.9084     -810.12912      1067.1428    
  11498000   268.565       -346.73108     -268.03275     -346.70871      0              4966.2936      46.258232      20.047001      20.857         19341.506      4731.8707      5578.0341      4588.976       1159.4186     -1134.1026      1288.2967    
  11498500   274.09434     -347.8936      -267.57498     -347.86096      0              4622.5696      46.535088      20.047001      20.857         19457.265      3940.5758      5033.2832      4893.8497      1738.4045      1103.274       129.95142    
  11499000   268.34256     -345.88622     -267.25306     -345.87807      0              3409.5108      46.351944      20.047001      20.857         19380.689      2934.532       4288.1547      3005.8456      121.83374      389.5826       1218.6821    
  11499500   266.80512     -345.75032     -267.56769     -345.77486      0              4488.5428      46.083506      20.047001      20.857         19268.45       4457.9151      6117.0344      2890.6789      1193.4707     -689.84025      151.51489    
  11500000   271.78851     -348.72908     -269.08615     -348.72572      0              6665.6591      46.0506        20.047001      20.857         19254.691      6188.4389      8756.5483      5051.99        542.09736     -425.60453      1618.6414    
[...]
  15064500   271.59371     -347.26288     -267.67703     -347.094        0              4897.9973      46.229369      20.047001      20.857         19329.437      6215.0851      5063.9058      3415.001      -366.46938     -1624.0697     -317.67745    
  15065000   262.77332     -351.10441     -274.10323     -350.93544      0              3307.342       46.125722      20.047001      20.857         19286.101      3118.6848      4360.5517      2442.7895     -921.89212      2023.7957     -566.61597    
  15065500   272.60965     -349.99389     -270.11034     -349.80116      0              6436.1059      46.189211      20.047001      20.857         19312.647      4175.0545      10350.723      4782.5405      1317.3899      1505.9316      81.59918     
  15066000   274.21923     -349.11255     -268.75733     -348.9366       0              2772.5914      46.516295      20.047001      20.857         19449.407      2657.8561      4078.82        1581.0982     -29.53683       1003.5553      1238.8963    
  15066500   267.61938     -349.70444     -271.2832      -349.52713      0              5030.1695      46.469678      20.047001      20.857         19429.916      2480.7105      5874.3712      6735.427      -625.68186     -305.20667      1376.0194    
  15067000   266.11995     -347.34153     -269.35967     -347.18177      0              5777.5091      46.105027      20.047001      20.857         19277.448      7248.1268      5464.6503      4619.7501      264.93647      1249.2871     -33.943277    
  15067500   272.02409     -347.58063     -267.86866     -347.40013      0              3435.3893      46.185308      20.047001      20.857         19311.015      3722.9762      3826.2787      2756.913       97.231469      451.45267      856.85868    
  15068000   270.88534     -346.26473     -266.88645     -346.0731       0              5323.4191      46.204721      20.047001      20.857         19319.132      8068.838       2684.0536      5217.3656     -789.14693     -707.16881     -1383.5451    
  15068500   269.4927      -351.26942     -272.29923     -351.08218      0              4923.855       46.443451      20.047001      20.857         19418.95       4185.4339      7113.031       3473.1         647.52047      563.0311       127.94172    
  15069000   266.53638     -346.3328      -268.22891     -346.16973      0              3191.8471      46.59108       20.047001      20.857         19480.676      3695.7728      3630.69        2249.0785     -1641.0002      1466.4589      1294.3038    
  15069500   269.33884     -348.80074     -269.87564     -348.63839      0              4650.337       46.229062      20.047001      20.857         19329.309      5388.8268      3252.7205      5309.4637     -211.79113      675.09611      247.22616    
  15070000   265.53334     -347.88254     -270.07258     -347.7259       0              4750.7467      46.132747      20.047001      20.857         19289.038      6602.6597      1706.9001      5942.6803     -616.92724      110.05557      1123.0883    
  15070500   273.68925     -349.10732     -268.90741     -348.94103      0              6655.7162      46.480456      20.047001      20.857         19434.422      8540.2191      4584.7285      6842.2011     -912.99677      107.75293     -2158.2211    
  15071000   272.73859     -351.88035     -271.95901     -351.6877       0              5275.724       46.651915      20.047001      20.857         19506.113      7855.0476      4229.9938      3742.1306     -438.15232     -243.93809      584.19092    
  15071500   271.70626     -349.49354     -269.87471     -349.34138      0              4926.7212      46.601916      20.047001      20.857         19485.207      4325.5988      5096.8329      5357.7319      1071.4606     -2081.9493     -198.6724     
  15072000   273.77251     -348.76442     -268.54011     -348.58636      0              4850.2298      46.42069       20.047001      20.857         19409.433      6307.7881      4760.4636      3482.4377      391.3829      -604.21336     -149.51939    
  15072500   271.457       -346.64864     -267.10285     -346.46835      0              5517.9665      46.377949      20.047001      20.857         19391.562      4407.9146      5822.3012      6323.6837     -646.39292     -571.29643      579.10812    
  15073000   277.77546     -349.30821     -267.91091     -349.11696      0              5293.5929      46.472588      20.047001      20.857         19431.133      5757.5288      5515.5877      4607.6622     -782.78635      347.43989      2172.071     
  15073500   272.9668      -348.29032     -268.30211     -348.11328      0              4534.0831      46.601122      20.047001      20.857         19484.875      4131.0844      5758.708       3712.4568     -262.03894      492.15476      1498.4914    
  15074000   270.3558      -352.67932     -273.45622     -352.48663      0              3606.4751      46.466412      20.047001      20.857         19428.55       3864.7448      3500.8869      3453.7936     -893.36877     -385.92076      1061.6182    
  15074500   260.79733     -351.68017     -275.25801     -351.49027      0              5532.0985      46.557764      20.047001      20.857         19466.746      4893.3894      6090.6778      5612.2284      401.47371      6.1833923      1062.4027    
  15075000   270.98874     -350.34161     -270.93303     -350.15458      0              5126.5326      46.697689      20.047001      20.857         19525.252      5161.5498      6255.654       3962.3942     -2211.6728      922.65185     -882.59245    
  15075500   261.13817     -353.00356     -276.48152     -352.81535      0              4397.6064      46.735599      20.047001      20.857         19541.102      4110.5099      2064.3142      7017.995       1611.2281      177.06212      1120.9162    
  15076000   263.89481     -352.36835     -275.03852     -352.18962      0              3091.4519      46.273669      20.047001      20.857         19347.96       3874.576       2125.2692      3274.5104     -699.53666      1232.3969     -1871.8484    
  15076500   272.81126     -351.06311     -271.12048     -350.8748       0              6115.5659      46.073467      20.047001      20.857         19264.252      7273.8545      6715.4773      4357.3659     -443.06173      9.0969323      1287.542     
  15077000   266.22242     -347.97698     -269.96509     -347.80947      0              6711.8032      46.293983      20.047001      20.857         19356.454      9066.7616      5164.4093      5904.2388      561.32862     -440.78231      333.8402     
  15077500   274.2973      -348.83518     -268.45709     -348.64529      0              1670.3076      46.633721      20.047001      20.857         19498.505      154.26436      5238.7312     -382.07275      803.9541       481.24885     -2495.5274    
  15078000   275.55828     -350.09052     -269.34292     -349.89871      0              4520.5886      46.536107      20.047001      20.857         19457.691      4445.415       4620.9522      4495.3985     -319.07158      109.01123     -128.49269    
  15078500   267.11638     -348.33648     -270.06263     -348.16298      0              7450.477       46.238452      20.047001      20.857         19333.235      8601.0433      8256.3455      5494.0422      913.61691      937.38306     -1008.3996    
  15079000   269.09744     -350.45409     -271.59972     -350.26928      0              4438.0505      46.257465      20.047001      20.857         19341.185      3279.8595      5983.9283      4050.3636      693.46903     -1014.9443     -479.38158    
  15079500   270.50092     -349.29663     -270.031       -349.12949      0              5818.5933      46.287101      20.047001      20.857         19353.576      6264.0418      6059.3805      5132.3575      1236.6436     -1593.1718      578.53385    
  15080000   262.41005     -348.14153     -271.24679     -347.95388      0              6458.2505      46.40727       20.047001      20.857         19403.822      4482.7945      8976.9766      5914.9804      562.85095     -1486.836      -72.980369    
  15080500   268.83851     -349.6776      -270.89912     -349.5433       0              3895.1771      46.350088      20.047001      20.857         19379.913      3415.1284      4485.4809      3784.922       94.653126      430.94142      1019.9158    
  15081000   272.6553      -350.21909     -270.32216     -350.03022      0              4937.3513      46.153699      20.047001      20.857         19297.798      4247.7811      4532.6437      6031.629       964.08771      1296.8191      649.79384    
  15081500   267.02391     -349.41016     -271.16341     -349.25745      0              4558.6813      46.339643      20.047001      20.857         19375.545      5345.2614      4153.7305      4177.0519      28.359463     -327.76458      71.069454    
  15082000   262.76864     -350.09741     -273.0976      -349.93736      0              3542.0051      46.372071      20.047001      20.857         19389.104      4001.8712      2842.7838      3781.3603      326.23503      988.77966     -1020.5116    
  15082500   265.68258     -350.93486     -273.08117     -350.7428       0              3407.1868      46.250861      20.047001      20.857         19338.424      3727.0676      4031.9594      2462.5335     -167.53765     -1432.8268      633.93336    
  15083000   276.87268     -347.07362     -265.94086     -346.91298      0              6486.4813      46.327102      20.047001      20.857         19370.302      5321.0575      7786.306       6352.0803     -883.84752      131.24625      126.92768    
  15083500   274.60591     -347.79355     -267.32502     -347.62603      0              3851.0132      46.444824      20.047001      20.857         19419.524      5126.3038      2653.3547      3773.3812      304.12816      1766.5491      581.5509     
  15084000   275.80531     -350.50874     -269.68875     -350.31954      0              6262.7994      46.180121      20.047001      20.857         19308.846      6301.7064      6030.2985      6456.3933     -756.27565     -1026.9523      809.50077    
  15084500   270.71795     -350.06218     -270.73296     -349.86987      0              5041.4442      46.275987      20.047001      20.857         19348.929      5667.4026      4492.0691      4964.8608     -688.74334     -1206.3258      1016.9894    
  15085000   267.56121     -352.00989     -273.6057      -351.82892      0              2788.7729      46.586109      20.047001      20.857         19478.598      3202.4943      3682.2793      1481.5451      614.19517      1400.5891     -376.89187    
  15085500   271.71398     -349.59772     -269.97662     -349.44108      0              6229.9119      46.604137      20.047001      20.857         19486.136      4788.0503      6783.7         7117.9855      423.98371     -46.959139      700.5088     
  15086000   271.24794     -350.82177     -271.33724     -350.65684      0              1762.8196      46.312868      20.047001      20.857         19364.35       3233.7192      426.7395       1628.0001     -1127.1935     -508.39563     -254.02565    
  15086500   270.77958     -349.95345     -270.60617     -349.76506      0              2855.2741      46.042011      20.047001      20.857         19251.099      5059.4625      2652.5848      853.77509     -2088.6068     -1394.6234      1125.9792    
  15087000   270.96794     -350.22153     -270.81905     -350.04508      0              5514.1191      46.32881       20.047001      20.857         19371.016      4251.1098      5674.7667      6616.4807      523.0571      -1733.9872      1415.5995    
  15087500   263.87497     -349.62259     -272.29858     -349.44839      0              1944.5787      46.593584      20.047001      20.857         19481.723      1651.8595      1528.8327      2653.0439      487.52478      301.89568     -1920.8695    
  15088000   269.42439     -350.04241     -271.09225     -349.85232      0              5425.749       46.436449      20.047001      20.857         19416.022      3402.7622      5837.3103      7037.1746     -791.54077     -2802.2676     -273.0377     
  15088500   267.97448     -348.9662      -270.4409      -348.80852      0              3813.8031      46.274419      20.047001      20.857         19348.274      2721.5039      3797.9177      4921.9875      1312.3733     -401.11709      858.85553    
  15089000   270.66861     -349.46872     -270.15395     -349.28812      0              2136.6151      46.198921      20.047001      20.857         19316.707      2474.5499      2559.1198      1376.1757      391.9047      -681.10896     -370.72406    
  15089500   264.40011     -351.25317     -273.77528     -351.08278      0              6418.0662      46.088815      20.047001      20.857         19270.669      8263.529       4460.7966      6529.8731      538.00212     -1416.8534     -743.35209    
  15090000   266.88124     -351.12962     -272.92467     -350.98729      0              5156.4771      46.241744      20.047001      20.857         19334.612      6010.0291      4662.4119      4796.9902      754.23644     -1496.9829     -1330.9397    
  15090500   267.15924     -349.487       -271.20059     -349.34308      0              5756.6107      46.218415      20.047001      20.857         19324.858      5810.5782      6077.9454      5381.3085     -95.916972      1669.7492      611.75805    
  15091000   264.43998     -351.37579     -273.88622     -351.19976      0              4871.9321      46.123952      20.047001      20.857         19285.36       5143.1302      4960.1846      4512.4816      450.74879      862.1118       1216.1656    
  15091500   267.77166     -350.16398     -271.69811     -350.04376      0              3904.0197      46.207247      20.047001      20.857         19320.188      7172.448       1332.8522      3206.7589     -172.36319     -1779.0395      2005.8713    
  15092000   263.27689     -345.27866     -268.12991     -345.12847      0              4620.5207      46.335129      20.047001      20.857         19373.658      3655.0149      5528.3684      4678.1788     -970.2413       648.04226      2248.7578    
  15092500   267.19675     -349.37492     -271.07752     -349.1893       0              4638.6417      46.256857      20.047001      20.857         19340.931      3922.6595      5398.5679      4594.6976      401.46652      867.86461     -295.14814    
  15093000   268.81786     -347.37801     -268.60557     -347.19908      0              4254.2505      46.362591      20.047001      20.857         19385.14       4641.3837      2905.3532      5216.0146      41.316214      996.71445      959.87761    
  15093500   265.34475     -348.76928     -271.01457     -348.64118      0              4600.4116      46.406384      20.047001      20.857         19403.451      5285.6579      3887.9149      4627.662       523.02901      1127.3674      1124.3584    
  15094000   273.42528     -349.40573     -269.28317     -349.21478      0              6347.3352      46.286344      20.047001      20.857         19353.26       5286.3315      7515.1079      6240.5661      1092.16       -1172.3587      401.32391    
  15094500   269.85477     -346.99502     -267.91873     -346.86003      0              2641.4825      46.525688      20.047001      20.857         19453.334      5182.6406      1585.0788      1156.7282     -263.07108      1142.3021     -362.03977    
  15095000   270.77176     -347.74169     -268.3967      -347.57468      0              5577.2164      46.514949      20.047001      20.857         19448.844      5470.1693      6804.1323      4457.3478      1981.7058      1041.8973     -1352.9088    
  15095500   271.98629     -350.41859     -270.7177      -350.25213      0              5058.8474      46.35141       20.047001      20.857         19380.465      5509.6674      5419.3644      4247.5105      707.20334     -907.93749      1289.7958    
  15096000   266.72665     -350.12403     -271.96439     -349.95527      0              5767.7416      46.041409      20.047001      20.857         19250.848      5633.8255      5540.8639      6128.5353      501.45979     -27.192553     -661.92396    
  15096500   272.87226     -349.86568     -269.90517     -349.71085      0              4461.9762      46.302978      20.047001      20.857         19360.215      4860.8369      2665.8951      5859.1967     -444.61025      989.36816      690.94148    
  15097000   276.47106     -350.32482     -269.30974     -350.15312      0              3870.3603      46.584333      20.047001      20.857         19477.855      5017.4145      4441.5496      2152.1169     -102.5168      -912.56502     -667.10182    
  15097500   269.60588     -349.31758     -270.31422     -349.17853      0              3699.9293      46.425285      20.047001      20.857         19411.354      3333.9362      4477.4896      3288.362       249.84507     -909.46286     -1045.5883    
  15098000   268.41527     -350.44752     -271.79306     -350.27016      0              5640.8605      46.49162       20.047001      20.857         19439.09       7050.7366      6051.9583      3819.8866      210.63156     -701.7451      -1027.4332    
  15098500   267.51428     -347.4358      -269.04535     -347.30959      0              4480.2234      46.669464      20.047001      20.857         19513.45       6239.6008      2413.1964      4787.8729      821.85433     -277.49819      1301.4837    
  15099000   269.3931      -350.3996      -271.4586      -350.24657      0              2051.0069      46.562048      20.047001      20.857         19468.537      3442.2182      1422.5589      1288.2435     -1196.9852      859.6273       614.60173    
  15099500   267.06389     -347.63002     -269.37156     -347.46417      0              5161.7163      46.30241       20.047001      20.857         19359.977      7737.1353      5007.555       2740.4586      757.84635      495.18216     -2302.8375    
  15100000   270.16489     -349.28152     -270.11436     -349.17552      0              4538.9716      46.370094      20.047001      20.857         19388.278      3638.2375      4013.7345      5964.9427      894.01617     -4.7681402     -478.59309    
WARNING: Wall time limit reached (../timer.cpp:193)
Loop time of 85815.1 on 4 procs for 3746000 steps with 2268 atoms

Performance: 1.886 ns/day, 12.727 hours/ns, 43.652 timesteps/s
955.5% CPU use with 4 MPI tasks x no OpenMP threads

MPI task timing breakdown:
Section |  min time  |  avg time  |  max time  |%varavg| %total
---------------------------------------------------------------
Pair    | 47407      | 47475      | 47588      |  33.7 | 55.32
Bond    | 0.42695    | 0.46192    | 0.50213    |   4.3 |  0.00
Neigh   | 1218.3     | 1242.1     | 1255.5     |  42.7 |  1.45
Comm    | 4792.2     | 4889.2     | 4983       |  98.1 |  5.70
Output  | 2680.3     | 2680.3     | 2680.4     |   0.1 |  3.12
Modify  | 29470      | 29518      | 29588      |  25.0 | 34.40
Other   |            | 10.75      |            |       |  0.01

Nlocal:            567 ave         580 max         554 min
Histogram: 1 0 0 1 0 0 1 0 0 1
Nghost:         3727.5 ave        3761 max        3686 min
Histogram: 1 0 0 0 1 0 0 1 0 1
Neighs:              0 ave           0 max           0 min
Histogram: 4 0 0 0 0 0 0 0 0 0
FullNghs:       142175 ave      146851 max      139172 min
Histogram: 1 1 0 0 1 0 0 0 0 1

Total # of neighbors = 568700
Ave neighs/atom = 250.74956
Ave special neighs/atom = 0
Neighbor list builds = 374600
Dangerous builds not checked

unfix		4
unfix		3
unfix		1

write_data	data.final.${pid}
write_data	data.final.0
System init for write_data ...
Generated 0 of 1 mixed pair_coeff terms from geometric mixing rule
write_restart	restart.lmp.${pid}
write_restart	restart.lmp.0
System init for write_restart ...
Generated 0 of 1 mixed pair_coeff terms from geometric mixing rule
Total wall time: 23:50:35
