LAMMPS (23 Jun 2022)
echo both

include		in.partitions
variable        pid world 0
include		in.temp
variable	temperature equal 270.0
variable        tempDamp equal 0.100 # this is 0.1 ps
include		in.pressure
variable        pressure equal 5066.25
variable        pressureDamp equal 1.0 #this is 1ps
include		in.seed
variable        seed world 745823

units           metal
atom_style	full
read_restart	restart.lmp.${pid}
read_restart	restart.lmp.0
Reading restart file ...
  restart file = 23 Jun 2022, LAMMPS = 23 Jun 2022
  restoring atom style full from restart
  orthogonal box = (0.584622 0 0) to (46.866077 20.047001 20.857)
  4 by 1 by 1 MPI processor grid
Summary of lammps deepmd module ...
  >>> Info of deepmd-kit:
  installed to:       /u/sigbjobo/software/DEEPMD_FROM_SOURCE/deepmd-kit/install
  source:             v2.1.3
  source branch:       master
  source commit:      5a32c49
  source commit at:   2022-07-01 09:52:58 +0800
  surpport model ver.:1.1 
  build float prec:   double
  build with tf inc:  /u/sigbjobo/software/DEEPMD_FROM_SOURCE/tensorflow/install/include;/u/sigbjobo/software/DEEPMD_FROM_SOURCE/tensorflow/install/include
  build with tf lib:  /u/sigbjobo/software/DEEPMD_FROM_SOURCE/tensorflow/install/lib/libtensorflow_cc.so;/u/sigbjobo/software/DEEPMD_FROM_SOURCE/tensorflow/install/lib/libtensorflow_framework.so
  set tf intra_op_parallelism_threads: 0
  set tf inter_op_parallelism_threads: 0
  >>> Info of lammps module:
  use deepmd-kit at:  /u/sigbjobo/software/DEEPMD_FROM_SOURCE/deepmd-kit/install
  source:             v2.1.3
  source branch:      master
  source commit:      5a32c49
  source commit at:   2022-07-01 09:52:58 +0800
  build float prec:   double
  build with tf inc:  /u/sigbjobo/software/DEEPMD_FROM_SOURCE/tensorflow/install/include;/u/sigbjobo/software/DEEPMD_FROM_SOURCE/tensorflow/install/include
  build with tf lib:  /u/sigbjobo/software/DEEPMD_FROM_SOURCE/tensorflow/install/lib/libtensorflow_cc.so;/u/sigbjobo/software/DEEPMD_FROM_SOURCE/tensorflow/install/lib/libtensorflow_framework.so
  restoring pair style deepmd from restart
  2268 atoms
Finding 1-2 1-3 1-4 neighbors ...
  special bond factors lj:    0        0        0       
  special bond factors coul:  0        0        0       
     0 = max # of 1-2 neighbors
     0 = max # of 1-3 neighbors
     0 = max # of 1-4 neighbors
     1 = max # of special neighbors
  special bonds CPU = 0.000 seconds
  read_restart CPU = 0.008 seconds
include 	in.setup
variable	out_freq equal 500
variable	out_freq2 equal 1000
variable	out_freq3 equal 5000

timestep        0.0005

neigh_modify    delay 7 every 1

include         in.deepmd
# This is deepMD model

# create groups ###
#group ox type 2
#group hy type 1

mass 2 15.999
mass 1 1.008

pair_style      deepmd ../graph.pb
pair_coeff      * *

bond_style      none
angle_style     none
dihedral_style  none
improper_style  none
neigh_modify exclude none


neighbor        2.0 bin
neigh_modify    every 10 delay 0 check no

thermo          ${out_freq}
thermo          500
thermo_style 	custom step temp pe etotal epair emol press lx ly lz vol pxx pyy pzz pxy pxz pyz
#thermo_modify	flush yes
restart 	${out_freq} restart.lmp.${pid} restart2.lmp.${pid}
restart 	500 restart.lmp.${pid} restart2.lmp.${pid}
restart 	500 restart.lmp.0 restart2.lmp.${pid}
restart 	500 restart.lmp.0 restart2.lmp.0

include		in.dump
dump            myDump all atom ${out_freq3} dump.water.${pid}
dump            myDump all atom 5000 dump.water.${pid}
dump            myDump all atom 5000 dump.water.0
dump            myDump2 all dcd ${out_freq2} dump.dcd.${pid}
dump            myDump2 all dcd 1000 dump.dcd.${pid}
dump            myDump2 all dcd 1000 dump.dcd.0
dump_modify     myDump append yes
dump_modify     myDump2 append yes


timer           timeout 23:50:00 every 1000
New timer settings: style=normal  mode=nosync  timeout=23:50:00

fix             1 all plumed plumedfile plumed.dat outfile plumed.out
fix             3 all nph x ${pressure} ${pressure} ${pressureDamp}
fix             3 all nph x 5066.25 ${pressure} ${pressureDamp}
fix             3 all nph x 5066.25 5066.25 ${pressureDamp}
fix             3 all nph x 5066.25 5066.25 1
Resetting global fix info from restart file:
  fix style: nph, fix ID: 3
fix             4 all temp/csvr ${temperature} ${temperature} ${tempDamp} ${seed}
fix             4 all temp/csvr 270 ${temperature} ${tempDamp} ${seed}
fix             4 all temp/csvr 270 270 ${tempDamp} ${seed}
fix             4 all temp/csvr 270 270 0.1 ${seed}
fix             4 all temp/csvr 270 270 0.1 745823
Resetting global fix info from restart file:
  fix style: temp/csvr, fix ID: 4

run             40000000 upto

CITE-CITE-CITE-CITE-CITE-CITE-CITE-CITE-CITE-CITE-CITE-CITE-CITE

Your simulation uses code contributions which should be cited:

- USER-DEEPMD package:

@article{Wang_ComputPhysCommun_2018_v228_p178,
  author = {Wang, Han and Zhang, Linfeng and Han, Jiequn and E, Weinan},
  doi = {10.1016/j.cpc.2018.03.016},
  url = {https://doi.org/10.1016/j.cpc.2018.03.016},
  year = 2018,
  month = {jul},
  publisher = {Elsevier {BV}},
  volume = 228,
  journal = {Comput. Phys. Commun.},
  title = {{DeePMD-kit: A deep learning package for many-body potential energy representation and molecular dynamics}},
  pages = {178--184}
}

CITE-CITE-CITE-CITE-CITE-CITE-CITE-CITE-CITE-CITE-CITE-CITE-CITE

Generated 0 of 1 mixed pair_coeff terms from geometric mixing rule
All restart file global fix info was re-assigned
Neighbor list info ...
  update every 10 steps, delay 0 steps, check no
  max neighbors/atom: 2000, page size: 100000
  master list distance cutoff = 8
  ghost atom cutoff = 8
  binsize = 4, bins = 12 6 6
  1 neighbor lists, perpetual/occasional/extra = 1 0 0
  (1) pair deepmd, perpetual
      attributes: full, newton on
      pair build: full/bin
      stencil: full/bin/3d
      bin: standard
Per MPI rank memory allocation (min/avg/max) = 6.144 | 6.147 | 6.149 Mbytes
   Step          Temp          PotEng         TotEng         E_pair         E_mol          Press            Lx             Ly             Lz           Volume          Pxx            Pyy            Pzz            Pxy            Pxz            Pyz      
  29703500   263.89906     -351.73181     -274.40075     -351.73181      0              3712.3216      46.281455      20.047001      20.857         19351.216      4893.8019      1472.1074      4771.0555      482.65185     -1207.6257     -2504.1574    
  29704000   262.61809     -355.25532     -278.29962     -355.08259      0              4677.5705      46.214228      20.047001      20.857         19323.107      5175.7661      5183.5627      3673.3827      922.56678      1508.8898     -1944.379     
  29704500   266.27998     -351.17759     -273.14884     -351.0064       0              8623.3749      45.989749      20.047001      20.857         19229.248      8349.5286      9217.5249      8303.0712     -461.92029     -771.96914      781.09543    
  29705000   271.00061     -352.16398     -272.75192     -351.99711      0              2993.1003      46.15857       20.047001      20.857         19299.835      1722.9871      3457.4371      3798.8765      490.01009      218.08405     -1008.3849    
  29705500   272.62187     -351.34421     -271.45707     -351.18356      0              5828.1713      46.312757      20.047001      20.857         19364.304      5463.1611      6002.8909      6018.462      -648.0407       1353.5242     -1264.5303    
  29706000   272.26155     -349.94462     -270.16307     -349.82228      0              5518.423       46.392382      20.047001      20.857         19397.596      7440.807       5226.9486      3887.5134     -142.32746     -219.46779     -812.11487    
  29706500   278.11119     -350.96507     -269.46939     -350.79581      0              3295.3647      46.408119      20.047001      20.857         19404.176      3578.5074      2254.5329      4053.0537     -6.9903643     -439.18951      1364.6301    
  29707000   267.82399     -349.51772     -271.03652     -349.39016      0              3160.7687      46.435713      20.047001      20.857         19415.714      3627.1227      2258.1563      3597.0272      723.1361       573.16777      412.08602    
  29707500   266.34841     -350.05122     -272.00242     -349.8855       0              1750.9752      46.474335      20.047001      20.857         19431.863      566.02797      3179.0997      1507.798      -465.00811     -8.1636053     -558.84502    
  29708000   271.69031     -351.35893     -271.74477     -351.19515      0              1640.2421      46.339408      20.047001      20.857         19375.447      2614.4943      945.53419      1360.698       752.98138      1088.4         914.60953    
  29708500   270.43429     -350.20313     -270.95703     -350.0404       0              6103.4082      46.162325      20.047001      20.857         19301.405      5546.8215      6895.1986      5868.2044      564.42606      950.21633     -390.07954    
  29709000   268.04591     -352.90404     -274.35781     -352.73933      0              4124.0444      46.299037      20.047001      20.857         19358.567      5265.3501      2930.5932      4176.19        863.97286      155.6469       2772.6367    
  29709500   271.30922     -352.22745     -272.72496     -352.06149      0              7181.6155      46.453297      20.047001      20.857         19423.066      7414.2581      6539.0157      7591.5727     -2145.3962     -541.70188     -431.73344    
  29710000   274.20786     -351.64017     -271.28829     -351.47772      0              4003.0405      46.462453      20.047001      20.857         19426.895      2929.8624      4567.8364      4511.4227     -16.604693     -746.63293     -1097.6416    
  29710500   279.4905      -352.34274     -270.44287     -352.17516      0              6090.5908      46.333208      20.047001      20.857         19372.855      7544.2218      4454.7326      6272.818       290.27476     -1722.1541      839.83695    
  29711000   273.288       -351.3332      -271.25087     -351.17064      0              3911.1219      46.224122      20.047001      20.857         19327.244      4546.7834      2835.094       4351.4885      334.40992      201.7604       1434.8732    
  29711500   268.75224     -349.26656     -270.51335     -349.09391      0              4424.5767      46.238551      20.047001      20.857         19333.277      3846.6893      4350.5305      5076.5101      673.27669      628.06121      1592.2104    
  29712000   264.3591      -350.53459     -273.06871     -350.36556      0              5969.1982      46.300207      20.047001      20.857         19359.057      5717.9851      5952.7096      6236.9        -634.21809     -1202.6321      682.30477    
  29712500   265.4635      -352.36343     -274.57393     -352.19833      0              3457.9038      46.154388      20.047001      20.857         19298.087      4013.9035      3328.1892      3031.6186      240.50487      325.1406      -1333.34      
  29713000   269.87546     -354.19774     -275.11539     -354.03393      0              4190.449       46.096182      20.047001      20.857         19273.749      5337.4657      3862.1586      3371.7225     -1416.5341      1408.3873      1255.9899    
  29713500   266.69262     -351.5569      -273.40723     -351.4023       0              5980.6267      46.252144      20.047001      20.857         19338.96       6472.2662      7813.994       3655.6201     -966.64669     -971.85359     -511.34727    
  29714000   264.63605     -350.82617     -273.27914     -350.70748      0              2089.8232      46.300099      20.047001      20.857         19359.011      2955.4532     -1086.778       4400.7946      928.87614     -380.70486      197.32275    
  29714500   268.88784     -351.96559     -273.17265     -351.80913      0              5657.3052      46.278441      20.047001      20.857         19349.955      5368.9409      5772.5026      5830.472      -867.19048      189.57735     -1621.7483    
  29715000   273.98351     -346.64269     -266.35655     -346.49932      0              3836.639       46.330363      20.047001      20.857         19371.665      5409.3547      4384.5265      1716.0359      931.22238      1702.6263      1309.316     
  29715500   274.82023     -350.24846     -269.71713     -350.10726      0              3513.6048      46.494638      20.047001      20.857         19440.352      3570.4936      2468.5962      4501.7246      204.63531     -862.69232      604.87136    
  29716000   266.90873     -353.93078     -275.71778     -353.76118      0              3714.629       46.34561       20.047001      20.857         19378.041      5899.8262      3946.409       1297.6519     -437.79078      1796.8336     -810.67699    
  29716500   272.47341     -350.91416     -271.07053     -350.76403      0              4637.7045      46.074102      20.047001      20.857         19264.518      5901.3996      4111.1476      3900.5665      2157.401       539.55014      414.79956    
  29717000   276.47024     -352.00209     -270.98725     -351.83151      0              3096.1096      46.110988      20.047001      20.857         19279.94       3325.6617      1724.4238      4238.2431     -2392.864       25.25342       118.61084    
  29717500   262.70297     -350.26416     -273.28358     -350.12199      0              5037.2028      46.424066      20.047001      20.857         19410.844      6556.4511      3361.1661      5193.9914     -327.44463     -599.58142     -947.9684     
  29718000   266.88977     -349.70326     -271.49582     -349.53816      0              3774.2404      46.451806      20.047001      20.857         19422.443      5145.0898      1727.6266      4450.0047     -714.78375      33.855217     -1546.0413    
  29718500   277.18379     -348.9511      -267.72717     -348.78847      0              5241.3608      46.145538      20.047001      20.857         19294.386      7622.2354      4489.5379      3612.3091     -384.96224      712.62232      1543.4912    
  29719000   268.75545     -349.51806     -270.76391     -349.3482       0              4588.3435      46.238833      20.047001      20.857         19333.395      5005.7539      4309.1388      4450.1378     -474.95241     -1340.5502     -1611.373     
  29719500   275.46737     -352.13158     -271.41062     -351.98085      0              4232.2593      46.602046      20.047001      20.857         19485.261      4573.0032      5911.4367      2212.3381     -397.48218     -3903.9605      1124.1088    
  29720000   270.05154     -352.65565     -273.5217      -352.5071       0              3836.9719      46.424555      20.047001      20.857         19411.049      4486.5847      4559.0279      2465.3032     -410.34904      2090.7415      222.41163    
  29720500   261.70087     -349.97428     -273.28735     -349.83061      0              4342.5119      46.202774      20.047001      20.857         19318.318      4712.0644      6468.4698      1847.0015      324.97084      806.15752      614.25933    
  29721000   265.48433     -352.86477     -275.06917     -352.71095      0              2588.9449      46.324722      20.047001      20.857         19369.307      3782.2494      2047.7246      1936.8606     -1697.5026      1231.3782     -358.02099    
  29721500   276.36917     -352.15011     -271.16489     -351.98788      0              5724.8961      46.27459       20.047001      20.857         19348.346      5329.8781      4042.5254      7802.2848      1234.7693      90.861788     -767.15353    
  29722000   268.09495     -352.26718     -273.70658     -352.13661      0              3385.6984      46.273844      20.047001      20.857         19348.034      3502.0839      2796.6174      3858.3939      379.52062      2276.7686     -346.53918    
  29722500   263.68422     -350.85219     -273.58407     -350.69918      0              4859.9349      46.320366      20.047001      20.857         19367.485      5899.0622      4665.406       4015.3365     -1766.0915      1064.9787      1352.6379    
  29723000   269.02017     -352.11957     -273.28785     -351.97859      0              3768.9255      46.391273      20.047001      20.857         19397.133      5791.0245      1412.4138      4103.3382      1728.6523     -209.70656      213.69472    
  29723500   268.0098      -354.97665     -276.441       -354.80702      0              3735.9603      46.560756      20.047001      20.857         19467.997      4209.3053      3289.0631      3709.5125     -266.75551     -179.52908     -1117.5941    
  29724000   262.81028     -354.38026     -277.36824     -354.24748      0              4428.684       46.586392      20.047001      20.857         19478.716      4031.5419      5229.5016      4025.0084     -1099.3424      304.04011      71.025334    
  29724500   263.45729     -353.72033     -276.51872     -353.56141      0              2990.6347      46.380799      20.047001      20.857         19392.754      2586.5803      3653.3139      2732.0098     -1019.3026      123.39944      108.30188    
  29725000   263.15553     -353.8196      -276.70641     -353.67045      0              4774.8964      46.56635       20.047001      20.857         19470.336      5276.458       4241.3124      4806.9188     -91.690465      1255.7237     -2133.3122    
  29725500   262.65988     -350.78786     -273.81991     -350.65124      0              4752.1207      46.895095      20.047001      20.857         19607.791      2998.7717      4725.6435      6531.9469     -155.45855      443.70011      1008.6728    
  29726000   263.01148     -352.24377     -275.17279     -352.09035      0              3174.8795      46.668037      20.047001      20.857         19512.854      5358.7078      2601.8913      1564.0393     -886.49677     -13.260393     -43.22756     
  29726500   268.59064     -352.95956     -274.25371     -352.79469      0              4170.8514      46.372528      20.047001      20.857         19389.295      5163.7633      4191.4348      3157.3561      591.38         1.6903138      216.58873    
  29727000   269.1458      -352.50446     -273.63593     -352.35016      0              5285.1585      46.361947      20.047001      20.857         19384.871      4156.9426      5227.0901      6471.4429     -152.12226      945.66632      702.3152     
  29727500   271.936       -350.01437     -270.32822     -349.87746      0              6188.0496      46.50034       20.047001      20.857         19442.736      6948.9786      4580.4169      7034.7533     -321.13407     -1856.9094      145.51373    
  29728000   269.67361     -350.84302     -271.81982     -350.67832      0              4994.6135      46.36173       20.047001      20.857         19384.781      2912.2111      5594.8768      6476.7527      1391.1532      1857.4872     -685.57159    
  29728500   263.03204     -352.17084     -275.09384     -352.0053       0              1958.077       46.500462      20.047001      20.857         19442.787      2697.9516      1360.7464      1815.5329     -110.86895     -423.53189      1276.5049    
  29729000   267.28345     -352.80073     -274.47793     -352.63464      0              2835.9473      46.491765      20.047001      20.857         19439.151      3327.245       1278.548       3902.0488     -228.89101     -1751.0653      1772.557     
  29729500   267.04552     -348.45791     -270.20483     -348.30267      0              5424.3546      46.444013      20.047001      20.857         19419.185      6083.7732      4532.7267      5656.5637      861.46118      1633.0789     -2000.2157    
  29730000   266.62337     -350.85008     -272.7207      -350.686        0              5526.2656      46.36323       20.047001      20.857         19385.408      5490.415       5271.6786      5816.7032     -1112.4446     -1621.0612      903.80611    
  29730500   269.46041     -351.83354     -272.87282     -351.6748       0              4937.3809      46.345287      20.047001      20.857         19377.905      6208.0681      4295.3012      4308.7735      679.17376      61.611253     -1017.5187    
  29731000   262.96492     -351.98159     -274.92426     -351.84195      0              6330.8679      46.653731      20.047001      20.857         19506.872      4306.6742      5825.3961      8860.5333     -194.86586      390.54548     -1253.5702    
  29731500   268.23978     -352.56895     -273.96591     -352.40249      0              1655.8457      46.764631      20.047001      20.857         19553.242      340.04887      3511.1393      1116.349      -762.98371     -240.77823      1498.2751    
  29732000   269.77478     -351.50438     -272.45154     -351.33707      0              7225.5113      46.386487      20.047001      20.857         19395.132      5918.4696      8929.7501      6828.3141      692.62251     -782.81387     -442.02837    
  29732500   259.88107     -350.40248     -274.24882     -350.24088      0              6444.6603      46.163324      20.047001      20.857         19301.823      6694.5314      4463.6422      8175.8072      979.69687      236.69693      92.684055    
  29733000   256.51752     -350.54374     -275.37571     -350.38498      0              4308.416       46.269448      20.047001      20.857         19346.196      5793.4121      5934.997       1196.839       362.60366     -734.68477      991.03179    
  29733500   275.65763     -350.31292     -269.53621     -350.15499      0              5373.6946      46.510368      20.047001      20.857         19446.929      7626.7596      5837.729       2656.5952      396.15775      1184.8173      64.181641    
  29734000   272.36227     -350.03957     -270.22851     -349.88888      0              2824.8813      46.769949      20.047001      20.857         19555.465      3088.5316      3848.972       1537.1403      833.72087      833.23681     -856.0407     
  29734500   274.25821     -352.17464     -271.80801     -352.00403      0              3616.2085      46.638242      20.047001      20.857         19500.396      1653.2692      3265.1288      5930.2277      404.50545      639.3149      -592.71797    
  29735000   274.72604     -350.98515     -270.48142     -350.81772      0              5612.3495      46.197651      20.047001      20.857         19316.176      5384.5128      4446.4827      7006.0529      572.75086     -207.46194      253.0866     
  29735500   274.22963     -347.43907     -267.0808      -347.27566      0              6125.2006      45.996485      20.047001      20.857         19232.064      5954.499       5708.3671      6712.7357     -805.46771     -179.97744     -274.25202    
  29736000   269.22106     -348.15603     -269.26545     -347.99862      0              2976.2429      46.523697      20.047001      20.857         19452.502      898.99834      5016.246       3013.4844      143.75086      417.80603      872.35839    
  29736500   271.68315     -348.97402     -269.36196     -348.83433      0              4394.055       46.697419      20.047001      20.857         19525.139      4682.3502      3787.0242      4712.7907     -1476.9654     -1562.4761     -88.955293    
  29737000   283.34158     -349.47315     -266.44479     -349.30363      0              4480.9609      46.54669       20.047001      20.857         19462.116      5916.5912      3257.0398      4269.2517     -199.44676     -324.82946     -915.25622    
  29737500   273.87177     -349.68974     -269.43634     -349.51761      0              5102.3016      46.47046       20.047001      20.857         19430.243      5549.3583      6754.5909      3002.9556     -784.76942      1025.2584      1542.3277    
  29738000   270.12242     -349.56031     -270.4056      -349.40089      0              4769.0463      46.478384      20.047001      20.857         19433.556      5666.7174      3524.1669      5116.2545     -433.84709      1704.323       785.94821    
  29738500   273.45425     -348.41641     -268.28536     -348.27343      0              4571.6282      46.434939      20.047001      20.857         19415.391      4109.5353      6055.1235      3550.2259      878.30167     -1289.6443     -435.41061    
  29739000   264.64981     -348.28634     -270.73528     -348.14097      0              3683.2043      46.421963      20.047001      20.857         19409.965      4188.422       3832.6049      3028.586       1605.3532     -2236.0064      732.36322    
  29739500   272.11981     -348.65066     -268.91064     -348.50332      0              4028.9         46.321178      20.047001      20.857         19367.825      3746.618       5373.846       2966.2361      214.60701     -1441.8046      559.76916    
  29740000   271.67742     -349.60271     -269.99233     -349.45344      0              4752.3959      46.299202      20.047001      20.857         19358.636      7540.5942      2500.4237      4216.1698     -858.6227      -1211.34       -1151.4304    
  29740500   273.6008      -348.42835     -268.25436     -348.25741      0              3426.1578      46.351866      20.047001      20.857         19380.656      1908.9836      4953.6954      3415.7943      1285.433      -1076.2153      1261.5734    
  29741000   281.05913     -349.79692     -267.43739     -349.67351      0              5955.4347      46.54372       20.047001      20.857         19460.874      8420.0123      4441.7831      5004.5086      613.62485      263.56723      1332.2611    
  29741500   279.6731      -347.24637     -265.29299     -347.10231      0              2990.739       46.411978      20.047001      20.857         19405.79       2509.9232      2570.4752      3891.8187     -490.34726      544.10811      48.362051    
  29742000   276.58582     -348.79266     -267.74395     -348.62817      0              4868.15        46.341618      20.047001      20.857         19376.371      4222.2856      6889.2833      3492.8812      1740.0795     -800.81935      126.83709    
  29742500   268.5891      -348.60154     -269.89614     -348.45877      0              4264.2994      46.260109      20.047001      20.857         19342.291      4031.0595      5578.7453      3183.0936      1131.4451      306.7124      -1019.8193    
  29743000   274.85854     -351.42315     -270.8806      -351.25526      0              2289.6012      46.282862      20.047001      20.857         19351.804      1872.6423      5498.5918     -502.43043      692.74633     -1339.3485     -1650.455     
  29743500   266.54807     -349.07126     -270.96394     -348.90568      0              4560.9861      46.409597      20.047001      20.857         19404.795      6265.7201      2240.1337      5177.1046     -479.21295      1318.4873      671.19975    
  29744000   267.15672     -347.91452     -269.62886     -347.74243      0              2667.1593      46.431484      20.047001      20.857         19413.946      2304.8479      3881.3015      1815.3285      485.12917      1148.4493     -188.96587    
  29744500   269.34989     -352.33163     -273.40329     -352.16549      0              3445.8382      46.229872      20.047001      20.857         19329.648      3687.099       2392.7722      4257.6434     -523.2592       657.32492      878.08524    
  29745000   269.30457     -351.6444      -272.72934     -351.50858      0              5399.9789      46.161329      20.047001      20.857         19300.989      6418.9628      7366.0714      2414.9024     -945.57846     -2.8624982     -310.10139    
  29745500   263.88324     -348.83042     -271.50399     -348.66648      0              2788.3257      46.28804       20.047001      20.857         19353.969      3608.3394      2985.0267      1771.6109      831.13779      1199.1005     -2090.7597    
  29746000   271.05784     -350.1819      -270.75307     -350.04112      0              4123.2187      46.496923      20.047001      20.857         19441.307      7077.6943      1088.3011      4203.6606      565.08369     -385.50189     -230.92448    
  29746500   273.55593     -350.61846     -270.45761     -350.45597      0              6547.2577      46.388727      20.047001      20.857         19396.068      7275.8118      6068.5123      6297.4492     -532.87173      659.68262     -994.40674    
  29747000   275.36442     -350.31574     -269.62495     -350.16758      0              3528.6619      46.36586       20.047001      20.857         19386.507      5889.971       1869.429       2826.5855     -708.159       -1071.5199      998.48998    
  29747500   267.19408     -349.79315     -271.49653     -349.68264      0              5013.8259      46.305965      20.047001      20.857         19361.464      5508.8136      4346.1024      5186.5616     -849.64685      1762.3798      611.19425    
  29748000   271.38809     -344.97229     -265.4467      -344.85989      0              6324.8604      46.202404      20.047001      20.857         19318.163      6627.7167      5621.4879      6725.3767      1867.0088     -585.61798      846.0508     
  29748500   269.3976      -349.44865     -270.50633     -349.32724      0              4077.1051      46.000712      20.047001      20.857         19233.832      5432.481       2422.383       4376.4513      96.007882      479.55516      1223.8936    
  29749000   273.51607     -350.21392     -270.06475     -350.04223      0              4896.9534      45.947212      20.047001      20.857         19211.462      7951.1444      3804.6604      2935.0554      459.57373     -849.51383      579.53207    
  29749500   270.35535     -349.83025     -270.60728     -349.66987      0              4660.3848      46.049961      20.047001      20.857         19254.424      6194.3326      4156.6256      3630.1963     -141.30654     -1364.2517     -332.34518    
  29750000   271.52289     -347.59652     -268.03142     -347.44978      0              3669.7917      46.06388       20.047001      20.857         19260.243      2829.0172      3927.3265      4253.0315      490.03626      1506.6671      395.17167    
  29750500   272.77177     -349.69261     -269.76154     -349.54047      0              5458.6781      45.922908      20.047001      20.857         19201.3        7378.0684      4675.3769      4322.5889     -1563.3234     -416.39985      615.3303     
  29751000   269.62969     -350.76788     -271.75754     -350.64233      0              3570.3863      46.097711      20.047001      20.857         19274.389      3000.874       3794.1033      3916.1817     -360.92924     -1783.7653     -678.21068    
  29751500   277.68807     -350.37777     -269.00607     -350.21084      0              4812.9659      46.102968      20.047001      20.857         19276.587      5354.6016      3543.3986      5540.8975     -766.73379      1519.1035     -167.25978    
  29752000   262.94428     -351.11846     -274.06717     -350.99779      0              3072.4419      46.457122      20.047001      20.857         19424.666      5247.4076      1216.9888      2752.9292      191.07472     -2097.1477     -684.77588    
  29752500   272.56074     -350.15292     -270.2837      -349.99133      0              5617.3606      46.509025      20.047001      20.857         19446.367      7398.4187      4905.88        4547.7831      68.664584     -1209.6715      195.55856    
  29753000   262.66717     -349.7567      -272.78662     -349.61603      0              4574.7933      46.119245      20.047001      20.857         19283.393      4277.4412      4126.1652      5320.7736      399.41816     -250.47468      34.2381      
  29753500   272.6079      -350.38009     -270.49705     -350.20787      0              5157.6639      46.115365      20.047001      20.857         19281.77       6798.4982      4561.8163      4112.6773     -1611.7285     -3738.2264     -1506.6774    
  29754000   269.03258     -350.23045     -271.3951      -350.0969       0              3480.8428      46.272878      20.047001      20.857         19347.63       3808.2         3969.4766      2664.8519      890.89151     -1052.6994     -49.711043    
  29754500   271.6179      -348.02185     -268.42891     -347.89249      0              4605.7957      46.226626      20.047001      20.857         19328.291      3389.3873      7078.2905      3349.7093      18.969115     -1624.7473     -651.52938    
  29755000   276.94631     -348.80005     -267.64571     -348.6331       0              5795.9238      46.024789      20.047001      20.857         19243.898      9813.6277      4342.8227      3231.3211     -69.47897      -89.553956     -2161.9949    
  29755500   269.74559     -349.30952     -270.26522     -349.15528      0              6089.3162      46.331197      20.047001      20.857         19372.014      7432.5447      5062.8767      5772.5273     -468.22066     -895.15663     -467.66876    
  29756000   265.89351     -349.65902     -271.74351     -349.50482      0              2976.3575      46.372326      20.047001      20.857         19389.211      1941.0231      3706.9807      3281.0689     -409.61419      251.37981     -498.33475    
  29756500   266.73866     -350.63625     -272.47309     -350.46876      0              5719.9623      46.042178      20.047001      20.857         19251.169      6215.9666      7273.6073      3670.3128      504.40775     -848.18547     -1069.3044    
  29757000   269.06747     -351.02367     -272.17809     -350.85652      0              5472.3542      46.142362      20.047001      20.857         19293.058      4053.5155      4966.1271      7397.42        418.22287     -460.00251     -1735.2115    
  29757500   267.15697     -350.54908     -272.26334     -350.37734      0              5544.0148      46.257203      20.047001      20.857         19341.075      6289.1638      4407.0343      5935.8463      814.6135       1178.0977      525.63206    
  29758000   269.20906     -349.54398     -270.65691     -349.3716       0              4170.3625      46.399369      20.047001      20.857         19400.518      2021.6422      4840.5922      5648.8532     -1268.8562     -1415.3547      291.05492    
  29758500   269.38547     -351.27325     -272.33448     -351.10575      0              5774.816       46.279981      20.047001      20.857         19350.599      6010.7835      6375.528       4938.1367     -625.68012     -1622.1861     -1268.006     
  29759000   266.78082     -351.10503     -272.92951     -350.93776      0              5979.0157      45.945345      20.047001      20.857         19210.681      6660.7714      3921.7426      7354.533       143.5914      -2270.2479      47.794335    
  29759500   268.723       -349.89719     -271.15255     -349.73096      0              4540.5314      46.05867       20.047001      20.857         19258.065      3177.5252      6745.8931      3698.176       246.87738      749.8386      -552.08211    
  29760000   270.0768      -350.90387     -271.76252     -350.73365      0              4100.5875      46.367434      20.047001      20.857         19387.165      6731.0341      1548.5884      4022.14       -339.03437     -520.53546     -1189.9733    
  29760500   267.9569      -348.97635     -270.4562      -348.82804      0              4454.7667      46.59198       20.047001      20.857         19481.053      4458.0224      4200.1244      4706.1531     -1896.2029     -1732.2181      623.32132    
  29761000   271.6017      -345.86599     -266.2778      -345.71861      0              5816.0138      46.183575      20.047001      20.857         19310.29       6894.6449      3750.2089      6803.1876      280.58164      2123.1653      806.78898    
  29761500   272.70499     -348.80451     -268.89302     -348.64998      0              4877.3396      46.159393      20.047001      20.857         19300.179      6875.413       2593.7404      5162.8653     -196.84455     -2641.8213     -186.03128    
  29762000   269.12133     -350.23432     -271.37296     -350.0668       0              2491.7486      46.378229      20.047001      20.857         19391.679      1162.0643      4808.3498      1504.8316     -1088.2649      47.363703     -782.0189     
  29762500   266.40382     -350.96124     -272.8962      -350.7913       0              3910.6419      46.468071      20.047001      20.857         19429.244      4519.9625      2635.0839      4576.8795      54.627014     -382.15409     -1364.6478    
  29763000   267.05732     -350.11661     -271.86007     -349.9479       0              6669.7181      46.092631      20.047001      20.857         19272.265      5921.455       6623.5185      7464.181       567.16653     -24.853694     -505.8245     
  29763500   267.31915     -351.71272     -273.37946     -351.57589      0              4199.6733      46.043348      20.047001      20.857         19251.658      4984.6217      3608.1645      4006.2338      831.42125     -915.90318      498.56317    
  29764000   264.81283     -349.78415     -272.18532     -349.62123      0              4241.4674      46.259011      20.047001      20.857         19341.831      3918.2012      4243.5718      4562.6293      290.07505     -964.20051     -544.22186    
  29764500   266.82054     -347.82378     -269.63662     -347.68027      0              4499.8647      46.432428      20.047001      20.857         19414.341      4495.5769      3475.9901      5528.0272     -43.567915     -874.67077     -2009.1786    
  29765000   271.05164     -350.10639     -270.67939     -349.94762      0              3500.0711      46.083816      20.047001      20.857         19268.579      4955.7953      2138.9087      3405.5093      1594.8715      195.62034     -1899.4396    
  29765500   276.16904     -351.3971      -270.47052     -351.23955      0              5735.2744      46.03211       20.047001      20.857         19246.96       8390.0551      4926.9111      3888.8569     -499.60413     -1935.0972      745.8589     
  29766000   266.36793     -346.6682      -268.61367     -346.53935      0              2684.2929      46.285813      20.047001      20.857         19353.038      1664.4631      3669.4239      2718.9919      839.82977      439.71018     -911.23759    
  29766500   271.36215     -348.22313     -268.70513     -348.07799      0              3575.0823      46.46934       20.047001      20.857         19429.774      3841.8913      1641.4128      5241.9427     -283.70049     -890.6128      -1365.1294    
  29767000   269.25483     -349.02143     -270.12094     -348.85558      0              3706.5579      46.468595      20.047001      20.857         19429.463      3781.2435      2047.8465      5290.5837     -654.71601      441.21069     -1480.2466    
  29767500   273.96671     -348.43334     -268.15212     -348.28178      0              3092.6804      46.350125      20.047001      20.857         19379.928      3265.8865      3402.5585      2609.596       94.668727     -643.73723      189.31146    
  29768000   268.2358      -350.63798     -272.03611     -350.47553      0              5007.2674      46.065308      20.047001      20.857         19260.841      4846.8081      4517.0214      5657.9727      496.96593     -462.74835     -1241.384     
  29768500   273.2522      -348.97031     -268.89847     -348.80764      0              5400.7216      45.957828      20.047001      20.857         19215.901      8160.5958      3017.7413      5023.8276      225.79399     -1373.4787      469.66994    
  29769000   275.97274     -350.34521     -269.47616     -350.17773      0              4199.2028      45.910507      20.047001      20.857         19196.115      5250.6997      3363.4252      3983.4835     -171.11269     -629.35999     -1453.0196    
  29769500   274.27003     -348.21135     -267.84125     -348.05974      0              2241.7533      46.193864      20.047001      20.857         19314.592      3617.2675      2880.1145      227.87786     -483.56155      456.11264      1674.0428    
  29770000   268.82528     -350.57338     -271.79877     -350.41135      0              4904.65        46.276269      20.047001      20.857         19349.048      4257.7498      6472.7145      3983.4857     -69.538943     -214.08327     -944.99332    
  29770500   273.07113     -350.79203     -270.77325     -350.63009      0              6402.9401      45.972038      20.047001      20.857         19221.842      8585.7982      5146.1775      5476.8447     -456.521       -415.88027      669.90847    
  29771000   269.54929     -349.57755     -270.59078     -349.42153      0              5060.1347      46.055924      20.047001      20.857         19256.917      2267.1692      5754.6776      7158.5575      960.60681     -1847.2778     -781.56712    
  29771500   270.85979     -349.08127     -269.71048     -348.98242      0              2160.7369      46.332553      20.047001      20.857         19372.581      2903.8412      1272.1542      2306.2152      498.70656      3048.8586      2274.4263    
  29772000   273.01916     -348.66134     -268.65779     -348.48914      0              3954.3152      46.680737      20.047001      20.857         19518.164      4207.1925      3683.7171      3972.036      -32.557993      267.23563      10.968354    
  29772500   276.19485     -349.11333     -268.1792      -348.97808      0              5225.5235      46.287211      20.047001      20.857         19353.623      6087.9341      5591.8738      3996.7627      68.076766     -1047.0633     -1796.1493    
  29773000   272.49413     -349.56719     -269.71748     -349.39758      0              5491.2305      45.921873      20.047001      20.857         19200.867      7926.6823      4884.0197      3662.9896     -1579.786      -1486.9615     -1925.3935    
  29773500   271.89291     -350.20229     -270.52876     -350.04112      0              4795.6987      46.548749      20.047001      20.857         19462.977      5456.8915      5766.2781      3163.9266      348.98205     -294.07724      1389.3666    
  29774000   270.24063     -350.61461     -271.42525     -350.52174      0              2813.8908      46.547713      20.047001      20.857         19462.544      5213.8229      1382.5971      1845.2525     -1202.893      -167.03923     -995.97813    
  29774500   262.41054     -349.21254     -272.31766     -349.05583      0              5349.2408      46.123482      20.047001      20.857         19285.164      6400.1747      3448.3012      6199.2467      466.58438     -725.41001     -247.88143    
  29775000   270.70118     -345.36872     -266.04441     -345.22705      0              4744.3611      46.243927      20.047001      20.857         19335.525      6335.409       2119.1334      5778.5408     -607.34448      1123.5451     -671.00493    
  29775500   267.19244     -348.84501     -270.54887     -348.67673      0              2637.2992      46.399234      20.047001      20.857         19400.462      3033.0452      2730.7794      2148.0731      1944.3609      693.8836      -477.37718    
  29776000   273.85263     -347.14686     -266.89907     -346.99349      0              2944.6762      46.368216      20.047001      20.857         19387.492      2316.9048      3925.745       2591.3788     -1181.7686     -558.63259     -134.89288    
  29776500   266.3053      -344.05527     -266.01909     -343.90136      0              5186.8557      46.085398      20.047001      20.857         19269.24       5965.0725      4719.9105      4875.5842     -265.43828      1412.578      -1470.077     
  29777000   275.27395     -347.85701     -267.19272     -347.69317      0              4292.9085      46.11269       20.047001      20.857         19280.652      6715.1973      2750.258       3413.2703     -352.49812     -1200.1533     -326.07908    
  29777500   269.39599     -348.51443     -269.57258     -348.34877      0              2649.1932      46.516707      20.047001      20.857         19449.58       3153.5295      3612.9921      1181.0579      65.195108      936.0568      -2575.2314    
  29778000   276.30644     -349.28804     -268.32121     -349.12213      0              5146.0299      46.731963      20.047001      20.857         19539.582      7922.3431      4160.3543      3355.3922     -198.99505     -81.398062     -106.26613    
  29778500   273.4732      -348.72253     -268.58592     -348.55657      0              4290.7185      46.607991      20.047001      20.857         19487.747      5284.3382      3819.6241      3768.1934      99.553583     -8.001569       1871.98      
  29779000   267.57613     -347.6471      -269.23853     -347.47605      0              6429.6847      46.261573      20.047001      20.857         19342.903      8289.9964      5112.4764      5886.5811     -940.40369      1145.9599      125.76718    
  29779500   271.80329     -351.71176     -272.0645      -351.59405      0              5205.8421      46.423647      20.047001      20.857         19410.669      6415.3852      4711.9047      4490.2364      428.5827      -1193.2765     -394.66235    
  29780000   268.77394     -349.05899     -270.29943     -348.89118      0              3859.3103      46.547864      20.047001      20.857         19462.607      4890.9785      2793.654       3893.2984     -1733.3696     -2147.7077     -615.39483    
  29780500   268.79428     -351.05604     -272.29051     -350.88453      0              4331.0729      46.424501      20.047001      20.857         19411.026      3707.7808      4874.0371      4411.4009     -1810.8168      1139.225      -484.86754    
  29781000   275.76106     -353.17839     -272.37137     -353.00606      0              5499.4443      46.21819       20.047001      20.857         19324.763      8042.4727      4296.2078      4159.6525     -2919.1348     -3092.1754      676.38022    
  29781500   266.86781     -350.7353      -272.53429     -350.57443      0              4883.5285      46.110953      20.047001      20.857         19279.925      5353.538       4164.8417      5132.2059     -1344.3685     -343.18991     -975.803      
  29782000   273.35611     -350.47039     -270.3681      -350.3006       0              6153.0392      46.236627      20.047001      20.857         19332.472      9998.4395      3952.6785      4507.9995      308.35227      1134.9306     -317.70882    
  29782500   268.30438     -350.00615     -271.38418     -349.86772      0              6644.4724      46.232952      20.047001      20.857         19330.936      9308.2172      4179.2292      6445.9707     -482.86736      651.1718      -1697.3593    
  29783000   259.83094     -348.77218     -272.63321     -348.59987      0              2282.9574      46.255846      20.047001      20.857         19340.508      4543.9305      1226.1337      1078.8081     -984.17145      494.87595     -1724.9809    
  29783500   273.61919     -350.82185     -270.64246     -350.65492      0              3529.8879      46.303314      20.047001      20.857         19360.355      5677.2269      2785.1247      2127.3121     -1214.8489      71.832963     -817.81473    
  29784000   271.63764     -350.54499     -270.94627     -350.39417      0              3714.7991      46.443234      20.047001      20.857         19418.859      3281.8503      3836.9058      4025.6414      181.52007     -596.16252      778.08426    
  29784500   270.24057     -353.79021     -274.60088     -353.61812      0              3294.8263      46.265239      20.047001      20.857         19344.436      5466.7445      3251.7548      1165.9797      1419.2778     -1318.4378     -1380.3609    
  29785000   268.7457      -347.42743     -268.67614     -347.2622       0              3215.7125      46.387454      20.047001      20.857         19395.536      4836.1073      1861.9992      2949.031      -289.17989      2044.5923      48.239887    
  29785500   267.01334     -348.16464     -269.92099     -348.00614      0              3942.4028      46.393619      20.047001      20.857         19398.114      5125.6929      3069.6078      3631.9079     -1131.31       -978.63385      1801.3381    
  29786000   276.30425     -350.95508     -269.98889     -350.78445      0              3925.834       46.323655      20.047001      20.857         19368.86       5101.4835      2506.1084      4169.9101      825.82486     -1074.6842      149.4072     
  29786500   270.24622     -349.45087     -270.25988     -349.27899      0              1952.5853      46.382964      20.047001      20.857         19393.659      3751.1031      853.71391      1252.9389     -405.1148      -678.05791     -993.99726    
  29787000   274.96625     -350.90962     -270.3355      -350.74619      0              3502.717       46.219977      20.047001      20.857         19325.51       4466.356       1739.0622      4302.7329     -145.27205      227.36286      1125.8966    
  29787500   277.37943     -348.08353     -266.80227     -347.93976      0              5271.5693      46.258331      20.047001      20.857         19341.547      5509.4704      4955.9343      5349.3032     -688.55538     -399.4786      -406.0812     
  29788000   268.2698      -350.34032     -271.72848     -350.16816      0              3957.6978      46.528279      20.047001      20.857         19454.418      4620.4432      3301.3529      3951.2973      499.23584     -856.5322      -1005.1113    
  29788500   263.68927     -350.2686      -272.99901     -350.09643      0              3826.2191      46.18821       20.047001      20.857         19312.228      6842.7075      1306.8793      3329.0707     -488.49572      214.98286      1112.0146    
  29789000   269.09299     -351.78148     -272.92842     -351.64069      0              4101.8609      46.196306      20.047001      20.857         19315.613      4783.4503      3025.9021      4496.2303      1109.9243     -1766.9465      1084.1557    
  29789500   274.01002     -349.05392     -268.76002     -348.89377      0              4674.3892      46.552241      20.047001      20.857         19464.437      3343.5854      4995.614       5683.9682     -310.12149      6.8814019     -2612.3331    
  29790000   273.16359     -348.52905     -268.48317     -348.39556      0              2187.3778      46.776987      20.047001      20.857         19558.408      2442.3676      590.04495      3529.7208     -1358.812       536.80694      456.92044    
  29790500   270.2128      -348.72726     -269.54606     -348.55982      0              4665.5001      46.550757      20.047001      20.857         19463.817      6600.5898      4415.8155      2980.0949      1374.4971     -1346.6833     -1899.4363    
  29791000   275.66427     -347.93365     -267.15499     -347.7614       0              2301.5851      46.152061      20.047001      20.857         19297.114      3936.6142      2784.7544      183.38676     -269.54487     -975.2193       1213.9844    
  29791500   268.47228     -349.18463     -270.51346     -349.01851      0              4928.9172      45.965992      20.047001      20.857         19219.314      5610.0227      5049.9294      4126.7993      198.64253     -1486.5809     -1415.0381    
  29792000   263.44274     -349.80302     -272.60567     -349.63074      0              3523.7836      45.96107       20.047001      20.857         19217.256      3450.0147      2984.4465      4136.8896      677.80619     -74.063643      698.80982    
  29792500   267.5517      -347.20762     -268.80621     -347.0363       0              5655.5177      46.049321      20.047001      20.857         19254.156      7232.524       6418.802       3315.2271      1192.2276      1135.2987     -933.97706    
  29793000   272.89124     -348.15007     -268.184       -347.97883      0              3601.9947      46.379155      20.047001      20.857         19392.066      6235.7603      1528.8666      3041.357      -789.89505     -474.50808     -527.45415    
  29793500   274.18594     -348.47786     -268.1324      -348.32664      0              5465.5395      46.313604      20.047001      20.857         19364.658      8249.1912      3755.1982      4392.2292      418.0214       562.12563      28.30234     
  29794000   274.30202     -349.19231     -268.81284     -349.03734      0              4501.7909      46.181395      20.047001      20.857         19309.379      5577.2803      4017.0877      3911.0047     -1037.1361     -2479.4261      1965.7025    
  29794500   280.29403     -350.06762     -267.93229     -349.89736      0              4140.9033      46.183498      20.047001      20.857         19310.258      5376.4846      4296.3436      2749.8818     -2371.9838      174.79834      757.57328    
  29795000   271.57215     -350.58394     -271.00441     -350.4159       0              3823.1498      46.346888      20.047001      20.857         19378.575      6454.2536      1385.9956      3629.2003     -1514.7796      165.54215     -741.29754    
  29795500   270.93671     -351.36718     -271.97385     -351.20067      0              2170.7376      46.478262      20.047001      20.857         19433.505     -217.91836      4653.0069      2077.1243     -1673.7373     -383.44544      609.82534    
  29796000   270.40241     -350.47347     -271.23671     -350.30882      0              3545.9737      46.391906      20.047001      20.857         19397.398      4620.0441      2905.7651      3112.1118      168.86935     -252.6067       2013.7737    
  29796500   275.54906     -347.45621     -266.71132     -347.28617      0              6412.058       46.114776      20.047001      20.857         19281.524      7046.8775      5582.4416      6606.8549      58.94503      -1204.3139     -0.46093396   
  29797000   272.99958     -348.17464     -268.17683     -348.01045      0              3318.3095      46.164381      20.047001      20.857         19302.265      3505.9775      1355.4248      5093.5262      221.638        484.72119      687.04905    
  29797500   277.0626      -348.37976     -267.19135     -348.24505      0              3871.8629      46.341236      20.047001      20.857         19376.211      3164.7498      3005.2303      5445.6085     -418.90189     -303.78204     -2165.6564    
  29798000   279.97997     -346.61875     -264.57545     -346.44751      0              6128.9479      46.169004      20.047001      20.857         19304.198      8003.2862      5207.6667      5175.8908      1152.3426     -591.73519      708.67135    
  29798500   276.39489     -348.98341     -267.99065     -348.81377      0              6098.8375      46.250928      20.047001      20.857         19338.452      4772.9059      6659.5413      6864.0652     -909.91969      686.06211     -1377.6276    
  29799000   272.42552     -350.64299     -270.81339     -350.48029      0              3264.1138      46.4316        20.047001      20.857         19413.995      4336.1536      2630.8762      2825.3116     -630.99021      2259.4311     -58.179093    
  29799500   268.1917      -350.59283     -272.00388     -350.42206      0              5060.2493      46.052094      20.047001      20.857         19255.315      3968.5653      3961.4973      7250.6852     -1188.0332     -968.86449      290.68261    
  29800000   260.7263      -349.38596     -272.98462     -349.22431      0              6958.7831      45.87102       20.047001      20.857         19179.605      9217.5117      6990.2387      4668.599      -484.0392      -2683.2102      215.58528    
  29800500   269.20325     -349.2065      -270.32113     -349.03714      0              3444.6252      46.257171      20.047001      20.857         19341.062      3163.8966      1699.6157      5470.3633      1327.9388      111.39048      642.58206    
  29801000   266.09369     -347.43339     -269.45922     -347.26928      0              3200.8912      46.35757       20.047001      20.857         19383.041      3521.3481      2226.6736      3854.6518      458.2792      -1721.768       738.30566    
  29801500   272.01686     -348.22362     -268.51378     -348.05464      0              4416.2112      46.249977      20.047001      20.857         19338.054      4569.5087      3745.689       4933.436      -954.33468      1370.5035      221.44437    
  29802000   266.52812     -348.07213     -269.97067     -347.90261      0              3577.8029      45.958066      20.047001      20.857         19216          3591.0476      3838.2266      3304.1345     -502.03515     -717.36744     -665.8354     
  29802500   263.42766     -349.8846      -272.69167     -349.71367      0              4265.2609      46.062228      20.047001      20.857         19259.553      4151.5253      5677.659       2966.5985     -1327.857       763.53744     -876.72966    
  29803000   264.51438     -348.30871     -270.79734     -348.1389       0              4267.1362      46.340783      20.047001      20.857         19376.022      2938.1486      4319.4131      5543.847      -992.44879     -762.77023     -1627.9439    
  29803500   270.27501     -349.16459     -269.96516     -348.99566      0              4751.1782      46.188303      20.047001      20.857         19312.267      4293.1987      4341.4079      5618.9281      270.01578     -2011.7109     -1295.6604    
  29804000   270.73307     -345.91077     -266.57712     -345.75143      0              4954.2646      46.190366      20.047001      20.857         19313.13       4439.2573      6938.8245      3484.712       12.887116     -1314.2127     -478.52724    
  29804500   274.29276     -346.53273     -266.15597     -346.36755      0              5309.0915      46.418643      20.047001      20.857         19408.577      5870.1818      5351.0988      4705.994      -646.89045      456.63708      3596.6781    
  29805000   272.09596     -347.23181     -267.49878     -347.06175      0              3368.9381      46.188056      20.047001      20.857         19312.164      3482.1371      3099.17        3525.5073     -432.48469      201.51745      685.15452    
  29805500   266.84778     -350.81085     -272.61571     -350.64891      0              4877.5008      45.852594      20.047001      20.857         19171.9        6054.5167      2740.4895      5837.4961      30.537906      706.36068      533.48506    
  29806000   267.86791     -350.49467     -272.0006      -350.3279       0              4462.3098      45.678109      20.047001      20.857         19098.945      5834.9217      3734.1527      3817.8551     -95.064478     -785.0948      -543.42169    
  29806500   272.48598     -351.64738     -271.80007     -351.47899      0              4814.4099      46.13855       20.047001      20.857         19291.464      6288.0595      3145.2012      5009.9691      520.2618      -1051.8319      2042.7822    
  29807000   266.41005     -352.24141     -274.17454     -352.0911       0              1891.1974      46.33247       20.047001      20.857         19372.546      1099.3092      1997.6114      2576.6716     -521.01424     -664.29041      974.20107    
  29807500   261.34865     -348.56635     -271.98263     -348.3944       0              3936.5218      46.360612      20.047001      20.857         19384.313      5419.11        2613.9495      3776.506      -786.6323       266.01686     -1.5835094    
  29808000   266.56413     -349.08068     -270.96866     -348.92153      0              3955.0455      46.416618      20.047001      20.857         19407.73       4243.8157      4358.1044      3263.2163      102.82576     -122.48118      205.71256    
  29808500   273.17234     -350.91531     -270.86687     -350.7503       0              2493.4196      46.553653      20.047001      20.857         19465.027      3102.7497      1727.0814      2650.4277     -189.16817     -608.04379     -1193.307     
  29809000   274.99953     -352.20235     -271.61848     -352.04105      0              4589.4579      46.398934      20.047001      20.857         19400.336      6622.36        4420.3433      2725.6703      232.64685      169.7719       643.75689    
  29809500   267.42154     -350.01318     -271.64991     -349.84107      0              4518.756       46.433792      20.047001      20.857         19414.911      4859.5207      5187.4571      3509.2902     -1384.9031     -797.83452      619.18608    
  29810000   259.4055      -349.9452      -273.9309      -349.77993      0              5330.452       46.486844      20.047001      20.857         19437.093      6297.6591      5968.7658      3724.9312      2349.6955     -2349.96        408.42645    
  29810500   269.45124     -350.32388     -271.36584     -350.15443      0              3499.8441      46.33441       20.047001      20.857         19373.357      2776.6417      3893.7068      3829.1838     -326.37222      873.40383      462.01118    
  29811000   276.34982     -348.96647     -267.98692     -348.81809      0              6256.2947      46.302059      20.047001      20.857         19359.831      7735.7497      5444.4908      5588.6435      623.10574      359.80592      652.84454    
  29811500   269.36771     -349.02496     -270.0914      -348.8569       0              6552.5885      46.198271      20.047001      20.857         19316.435      6818.0066      4944.3204      7895.4384     -1403.6257     -15.569945     -430.783      
  29812000   274.86354     -349.22937     -268.68535     -349.06901      0              4088.9837      46.429948      20.047001      20.857         19413.304      5740.6666      3025.6872      3500.5973      1103.998       1205.467       890.90715    
  29812500   264.33534     -346.48494     -269.02603     -346.31645      0              4714.5477      46.760344      20.047001      20.857         19551.449      1857.7456      5681.699       6604.1985      224.09777      1130.6293     -1145.4441    
  29813000   264.68517     -348.74666     -271.18523     -348.59555      0              6219.7777      46.450082      20.047001      20.857         19421.722      5120.8058      8373.5749      5164.9524      1601.3266     -657.15453      599.60819    
  29813500   263.97254     -348.69139     -271.33879     -348.55624      0              3497.8113      46.383091      20.047001      20.857         19393.712      4208.9778      3150.5837      3133.8723      2149.2463     -145.58646      1666.5628    
  29814000   270.89113     -348.73521     -269.35524     -348.6009       0              5005.7016      46.299606      20.047001      20.857         19358.805      7659.7726      3893.834       3463.4983      972.08887     -2713.4399      195.52751    
  29814500   279.14388     -350.99019     -269.1919      -350.83396      0              3514.4786      46.520248      20.047001      20.857         19451.06       1539.252       6290.8315      2713.3524      637.17989      1074.6454     -1957.8478    
  29815000   277.21952     -349.33704     -268.10264     -349.18687      0              3466.0151      46.722527      20.047001      20.857         19535.637      3641.7087      4069.6246      2686.712      -22.250709     -3532.2973      177.95826    
  29815500   273.59992     -351.31965     -271.14592     -351.18694      0              4568.7675      46.604184      20.047001      20.857         19486.155      4618.0716      3757.1812      5331.0498      28.165621     -298.23981     -191.81543    
  29816000   263.37955     -349.51353     -272.33469     -349.35361      0              5948.3125      46.314659      20.047001      20.857         19365.099      7432.8548      4317.3454      6094.7373      964.20618     -3131.0509     -638.69901    
  29816500   262.77141     -349.95765     -272.95702     -349.79605      0              2279.441       46.373663      20.047001      20.857         19389.77       3107.8907      1473.677       2256.7553      587.73865     -834.19441      990.18872    
  29817000   268.35571     -350.78041     -272.14339     -350.60828      0              3391.9126      46.480965      20.047001      20.857         19434.635      3980.7456      4649.2588      1545.7333      776.67601     -105.71424      636.89122    
  29817500   265.51076     -351.13626     -273.33291     -350.96714      0              6248.2159      46.260822      20.047001      20.857         19342.589      5672.9948      6909.821       6161.8318     -1096.3221     -1790.1801      116.17676    
  29818000   266.76509     -352.40478     -274.23387     -352.24418      0              4880.0182      46.113797      20.047001      20.857         19281.115      6023.6047      2716.8523      5899.5976      1837.6414      143.66116      550.38709    
  29818500   273.51503     -349.90519     -269.75633     -349.76107      0              6906.4207      46.420491      20.047001      20.857         19409.35       8076.9818      6788.2137      5854.0667      1217.0287      1101.7134     -625.64231    
  29819000   266.66628     -352.22043     -274.07848     -352.06638      0              3374.521       46.758173      20.047001      20.857         19550.541      2679.5849      3129.2663      4314.7116     -430.89177     -809.65042      1940.8115    
  29819500   265.67931     -349.83845     -271.98571     -349.68835      0              3509.7351      46.504308      20.047001      20.857         19444.395      4210.4867      4170.6413      2148.0772     -26.327344      1844.7199      451.24639    
  29820000   264.26954     -350.40922     -272.96959     -350.23715      0              3340.5721      46.180322      20.047001      20.857         19308.93       2478.5742      3153.779       4389.3632     -48.787095      657.96778     -1952.8272    
  29820500   271.99725     -349.81546     -270.11135     -349.64688      0              6124.4721      46.280281      20.047001      20.857         19350.725      5061.333       6920.8566      6391.2265      736.82631      760.45214      1484.0297    
  29821000   266.7588      -349.52469     -271.35562     -349.39233      0              3155.7914      46.664985      20.047001      20.857         19511.578      4525.0789      1696.5809      3245.7144      640.20769     -1450.2621      2210.6961    
  29821500   265.92221     -347.22572     -269.3018      -347.11099      0              4936.2427      46.392514      20.047001      20.857         19397.652      5703.8936      3804.226       5300.6085      509.59028      1224.89        1061.6072    
  29822000   271.57281     -350.14142     -270.56169     -349.97531      0              6933.3113      46.123495      20.047001      20.857         19285.169      8468.8698      6804.4774      5526.5867      487.57629      231.90468      706.26079    
  29822500   274.40611     -350.99451     -270.58454     -350.82246      0              3682.9527      46.244199      20.047001      20.857         19335.638      3783.252       3384.9182      3880.6879     -447.82913      326.93958      603.04671    
  29823000   264.542       -349.85477     -272.3353      -349.72071      0              5756.9554      46.252365      20.047001      20.857         19339.053      7347.4975      5686.6005      4236.7681     -57.063384      1591.616      -424.03039    
  29823500   266.8011      -350.50374     -272.32228     -350.34357      0              5528.4529      46.457788      20.047001      20.857         19424.944      5679.8807      7171.1244      3734.3536      589.16929      864.66177      149.79382    
  29824000   274.08144     -350.01419     -269.69935     -349.85008      0              7544.8219      46.316706      20.047001      20.857         19365.955      10868.037      3990.2403      7776.1884     -422.56561      1008.2077     -1109.9738    
  29824500   269.09979     -348.80225     -269.94719     -348.64708      0              3961.7742      46.425697      20.047001      20.857         19411.526      4423.2304      2826.2253      4635.867       386.88623     -964.25924     -542.8593     
  29825000   274.61798     -346.45823     -265.98617     -346.3292       0              3308.8955      46.253787      20.047001      20.857         19339.647      2359.1381      5312.0083      2255.5401      1495.293       886.11654      603.51641    
  29825500   273.13888     -347.59324     -267.5546      -347.43432      0              3869.6689      46.082091      20.047001      20.857         19267.858      4730.5473      3891.7462      2986.7132      1146.8484     -1462.5289      583.93676    
  29826000   279.11393     -350.23376     -268.44424     -350.08848      0              3851.5368      46.269696      20.047001      20.857         19346.299      5282.3747      4801.0468      1471.1888      1206.2969     -48.883064      1111.644     
  29826500   271.59379     -347.86358     -268.27771     -347.71178      0              3279.1011      46.431058      20.047001      20.857         19413.768      3189.1369      2960.313       3687.8534     -531.25321      305.04764     -813.79366    
  29827000   262.44928     -349.0531      -272.14687     -348.88425      0              4561.9872      46.203242      20.047001      20.857         19318.514      4574.0302      5547.4462      3564.485      -39.268061      968.22877      1835.0731    
  29827500   270.88875     -349.79216     -270.41289     -349.62786      0              7231.3573      45.644378      20.047001      20.857         19084.841      8315.1009      7310.338       6068.633       1303.7104      1327.5832     -387.88543    
  29828000   276.45272     -353.1967      -272.187       -353.07226      0              6332.3639      46.131661      20.047001      20.857         19288.584      7304.5479      6243.6792      5448.8646      368.53007     -372.11402     -1159.3235    
  29828500   267.45227     -349.7104      -271.33812     -349.57753      0              4261.4539      46.499942      20.047001      20.857         19442.57       6964.7172      2539.1442      3280.5004      1548.9519      427.702       -989.26352    
  29829000   267.925       -351.3838      -272.873       -351.21184      0              3336.4789      46.194335      20.047001      20.857         19314.789      5093.7162      2676.3167      2239.4038      549.83709      1016.1584     -1340.5909    
  29829500   280.30691     -352.70375     -270.56464     -352.54295      0              4650.7413      46.037885      20.047001      20.857         19249.374      5799.8233      3934.6355      4217.7651      819.64433      311.85364      469.74297    
  29830000   274.70002     -350.15341     -269.65731     -350.02615      0              4757.6525      46.281311      20.047001      20.857         19351.156      4128.8079      5561.0506      4583.0989      13.285642     -1106.3069     -43.630798    
  29830500   270.19227     -351.52818     -272.353       -351.39349      0              3143.604       46.421857      20.047001      20.857         19409.921      3053.0706      3098.2942      3279.4473      999.75469      1951.8935      72.698751    
  29831000   268.79483     -348.72905     -269.96337     -348.56068      0              6031.4235      46.052246      20.047001      20.857         19255.379      6474.6789      6634.0971      4985.4945      1385.0927     -430.39128     -586.34877    
  29831500   270.38084     -352.56436     -273.33392     -352.40364      0              3578.7258      46.05606       20.047001      20.857         19256.974      3255.7554      3517.7827      3962.6393     -976.71256     -1501.8249     -1013.7261    
  29832000   269.79232     -351.06641     -272.00843     -350.9033       0              4760.0959      46.147252      20.047001      20.857         19295.103      6852.0848      3999.8979      3428.3051     -999.20318     -650.10063      797.69521    
  29832500   271.23574     -353.34418     -273.86323     -353.17441      0              2244.4289      46.450531      20.047001      20.857         19421.91       1034.6345      3092.2738      2606.3784     -954.31669     -563.32314      771.38473    
  29833000   266.25339     -352.2125      -274.19154     -352.04997      0              3831.26        46.321733      20.047001      20.857         19368.057      4665.2772      2198.6855      4629.8173      308.47077     -998.07706      2245.9163    
  29833500   269.79694     -351.01897     -271.95963     -350.86031      0              4347.6555      46.028875      20.047001      20.857         19245.607      5083.191       2566.2705      5393.505      -1076.6657      938.90519     -1188.2803    
  29834000   270.30942     -350.75261     -271.5431      -350.58152      0              4627.4881      46.195489      20.047001      20.857         19315.272      7484.9248      1913.8261      4483.7134      1140.6667      1731.6408     -402.23526    
  29834500   272.63458     -352.05766     -272.1668      -351.88727      0              4402.1129      46.456776      20.047001      20.857         19424.521      5151.145       3385.4054      4669.7883     -522.07403     -587.48538     -119.26947    
  29835000   274.07982     -349.90849     -269.59413     -349.76387      0              4510.4223      46.322872      20.047001      20.857         19368.533      3724.9137      6137.4695      3668.8837      446.68457     -820.09784     -813.4795     
  29835500   275.50269     -349.9968      -269.26549     -349.833        0              2601.2559      46.195003      20.047001      20.857         19315.068      3922.8314      1483.1291      2397.8071      371.48741     -1613.3694     -451.08263    
  29836000   268.55869     -351.08392     -272.38743     -350.93002      0              7490.5164      46.144494      20.047001      20.857         19293.949      7819.8012      8465.5222      6186.2258      51.768478      103.34654     -1100.062     
  29836500   272.09487     -349.55674     -269.82403     -349.39196      0              5735.9112      46.267897      20.047001      20.857         19345.547      9286.3522      2464.2395      5457.1418      558.94758     -2546.8966     -1828.3973    
  29837000   274.0833      -349.61883     -269.30345     -349.47736      0              3933.3479      46.488696      20.047001      20.857         19437.867      4234.3151      2264.5287      5301.1999     -8.6826767      746.18653     -11.268312    
  29837500   269.04492     -350.20196     -271.36299     -350.04464      0              4036.5493      46.445564      20.047001      20.857         19419.833      4730.8671      4524.6611      2854.1199     -88.459592      533.58391      1482.7859    
  29838000   266.72055     -347.70014     -269.54228     -347.58163      0              4764.8182      46.235589      20.047001      20.857         19332.038      6471.6977      3515.6047      4307.1522      1041.2279      1389.4674     -1152.1383    
  29838500   268.04932     -348.65018     -270.10295     -348.51493      0              5611.0571      46.095276      20.047001      20.857         19273.371      4134.3881      5921.9032      6776.8799      1862.2135      688.5759       599.81038    
  29839000   275.40834     -351.01961     -270.31595     -350.9012       0              2509.2258      46.314148      20.047001      20.857         19364.886      4202.5248      780.73066      2544.422       68.599131     -670.87784     -1026.6544    
  29839500   271.76427     -349.37198     -269.73615     -349.21735      0              3517.9821      46.427088      20.047001      20.857         19412.108      3765.7042      3043.8172      3744.4249      236.11436      497.01226     -415.82711    
  29840000   276.4927      -350.52303     -269.50162     -350.38041      0              3542.9932      46.33768       20.047001      20.857         19374.724      5440.7093      1256.5398      3931.7306      1094.1947     -675.75061     -76.609544    
  29840500   266.88873     -350.68265     -272.47551     -350.54448      0              4166.0841      46.565256      20.047001      20.857         19469.879      2133.1096      5025.0158      5340.1268     -235.7317      -494.37509     -1954.6366    
  29841000   271.31041     -350.80951     -271.30667     -350.6655       0              3364.0245      46.463132      20.047001      20.857         19427.179      5282.1867      5005.4399     -195.55299     -1475.5504     -260.05386     -1624.6802    
  29841500   274.6157      -349.70874     -269.23735     -349.53836      0              4152.4572      46.453947      20.047001      20.857         19423.338      7075.4031      1961.9239      3420.0445     -193.16575      1446.4831      588.72827    
  29842000   268.45548     -349.32591     -270.65967     -349.16962      0              2348.0551      46.610063      20.047001      20.857         19488.613      2901.1094      2025.1661      2117.8898     -3087.2734     -918.42067      125.34177    
  29842500   271.22987     -350.00545     -270.52621     -349.85295      0              4343.387       46.486416      20.047001      20.857         19436.914      6305.0545      4881.188       1843.9185     -315.27653      854.52813     -3087.0074    
  29843000   269.05708     -349.11585     -270.27331     -348.95756      0              6167.0656      46.289416      20.047001      20.857         19354.544      6295.362       6025.7085      6180.1263     -1280.3985     -451.82856     -2320.2407    
  29843500   270.5242      -348.62281     -269.35036     -348.46938      0              3769.0871      46.369995      20.047001      20.857         19388.236      3836.1383      2757.2995      4713.8234      576.53339     -951.64837      109.70024    
  29844000   271.06926     -349.39933     -269.96716     -349.23722      0              5182.6412      46.449344      20.047001      20.857         19421.414      5883.4216      4532.8229      5131.6792     -148.29736     -958.49574     -393.09383    
  29844500   264.92049     -347.96438     -270.334       -347.80238      0              4662.2997      46.643636      20.047001      20.857         19502.651      7351.8514      1544.4434      5090.6043     -715.44316      139.39374      1352.5005    
  29845000   271.76132     -350.51333     -270.87837     -350.35009      0              5377.18        46.552552      20.047001      20.857         19464.567      4514.6118      5030.7862      6586.142       469.62794     -532.53562      597.34282    
  29845500   275.62091     -350.29764     -269.53168     -350.13696      0              4405.7459      46.232896      20.047001      20.857         19330.913      6850.3857      4049.8388      2317.0132     -635.9505      -20.142459     -345.86232    
  29846000   278.51131     -351.26914     -269.6562      -351.0996       0              2722.5114      46.281256      20.047001      20.857         19351.133      4486.6208      1434.7423      2246.1712      374.8756      -190.65133     -837.45414    
  29846500   276.45853     -353.42655     -272.41514     -353.26545      0              3771.6339      46.489898      20.047001      20.857         19438.37       4203.1536      5055.01        2056.7382     -633.25545     -15.50769      -357.88986    
  29847000   268.08289     -351.00991     -272.45284     -350.8567       0              5573.0947      46.484453      20.047001      20.857         19436.093      5951.6154      5627.1679      5140.5008      655.96044      611.72819      581.9044     
  29847500   260.48223     -349.12332     -272.7935      -348.95285      0              4369.871       46.364246      20.047001      20.857         19385.832      5344.8619      5332.1843      2432.5668      385.16779     -2159.5198      964.07892    
  29848000   266.28181     -349.5838      -271.55451     -349.42177      0              4770.9904      46.186025      20.047001      20.857         19311.314      4238.4728      6929.7032      3144.7952      2103.061       206.37927     -188.0086     
  29848500   272.23124     -351.22742     -271.45475     -351.05572      0              5736.2595      46.330365      20.047001      20.857         19371.666      6765.3107      3883.182       6560.2857     -49.247519      2031.0233      253.29368    
  29849000   263.44089     -349.13394     -271.93713     -348.9705       0              2956.4261      46.512054      20.047001      20.857         19447.634      5060.4174      4026.4138     -217.55284      468.57791     -353.59704      579.01749    
[...]
  31373500   263.82059     -349.3661      -272.05803     -349.19572      0              5105.898       46.277224      20.047001      20.857         19349.447      7117.5481      4165.4438      4034.7019     -1810.2595      668.76592      498.26143    
  31374000   269.59837     -349.19794     -270.19678     -349.06519      0              5210.912       46.474075      20.047001      20.857         19431.754      4395.5154      6334.2908      4902.9297      100.59796     -298.35989     -887.18606    
  31374500   279.22576     -351.04454     -269.22225     -350.87779      0              4070.8001      46.59604       20.047001      20.857         19482.75       3037.1666      2905.4111      6269.8227     -261.8537       912.58576      754.55925    
  31375000   280.12918     -347.61357     -265.52655     -347.4803       0              5104.6853      46.364035      20.047001      20.857         19385.744      6110.6153      4945.7125      4257.728       2077.3757     -1069.0102     -2370.3976    
  31375500   262.88523     -348.46336     -271.42937     -348.33468      0              6421.3057      46.109552      20.047001      20.857         19279.34       4423.0953      7483.0479      7357.774      -1779.5777      1302.0809      1412.9998    
  31376000   276.34663     -351.91919     -270.94058     -351.82941      0              5624.6594      46.028837      20.047001      20.857         19245.591      7509.155       5094.7007      4270.1225     -289.06019     -78.428305      1323.7353    
  31376500   262.18257     -350.49909     -273.67101     -350.35538      0              4859.0046      46.28259       20.047001      20.857         19351.69       5094.815       2494.1798      6988.019      -256.45491      178.72236     -340.79029    
  31377000   263.13639     -352.55198     -275.4444      -352.39188      0              5210.1747      46.410195      20.047001      20.857         19405.045      4613.6843      5783.3654      5233.4745     -1127.6032      130.84233     -972.36931    
  31377500   257.17124     -350.82337     -275.46377     -350.71484      0              3854.8462      46.231846      20.047001      20.857         19330.473      3789.7326      4549.4994      3225.3067      121.49969      794.23323     -103.63762    
  31378000   267.72901     -350.40735     -271.95399     -350.28829      0              6661.0098      45.987225      20.047001      20.857         19228.192      8573.8667      5005.3929      6403.7697      781.26536     -442.41415     -550.59199    
  31378500   276.93077     -348.54937     -267.39958     -348.41658      0              4990.4682      46.099144      20.047001      20.857         19274.988      5046.5702      6831.4295      3093.4049      1687.3675     -484.96739     -1190.5857    
  31379000   276.92954     -349.96579     -268.81636     -349.85569      0              5435.6553      46.271141      20.047001      20.857         19346.903      4585.8162      6379.6656      5341.484      -793.01743     -612.51468     -145.96258    
  31379500   266.20016     -348.08354     -270.07817     -347.975        0              3292.8909      46.409087      20.047001      20.857         19404.581      5177.9346      1042.1346      3658.6036     -631.38462     -194.58519      66.060268    
  31380000   276.43026     -348.30912     -267.306       -348.1559       0              4434.1264      46.414209      20.047001      20.857         19406.723      6628.0574      4076.4104      2597.9115      1132.9492     -1098.5419      359.92887    
  31380500   277.63728     -347.9335      -266.57669     -347.79992      0              3148.0646      46.353653      20.047001      20.857         19381.403      4723.0395      429.52148      4291.6328     -1263.8243     -1199.6926     -1332.2351    
  31381000   277.11581     -350.7496      -269.54559     -350.59381      0              3716.9555      46.218186      20.047001      20.857         19324.762      3244.0138      4359.8996      3546.9531      207.07551     -2010.6354      477.1202     
  31381500   274.7448      -348.77802     -268.2688      -348.70895      0              7032.1674      46.246252      20.047001      20.857         19336.497      7393.8854      5303.5565      8399.0603     -519.39978     -2405.4043     -1706.7833    
  31382000   269.22799     -346.94361     -268.05099     -346.82347      0              3665.1515      46.462362      20.047001      20.857         19426.857      5756.1697      4481.8196      757.46521     -4.9271788      13.72013       348.8296     
  31382500   274.65999     -349.34491     -268.86054     -349.18941      0              4611.5742      46.551544      20.047001      20.857         19464.146      4123.2933      4128.4285      5583.0007     -1238.7889      120.38945      471.24985    
  31383000   271.27724     -348.05359     -268.56048     -347.88763      0              4986.2733      46.298399      20.047001      20.857         19358.301      6020.2113      4741.004       4197.6047      889.14877      325.99128     -1390.8991    
  31383500   269.36008     -348.64161     -269.71029     -348.51947      0              2634.9232      46.3797        20.047001      20.857         19392.294      4035.1356      854.80136      3014.8326     -483.66904      1153.3372     -267.9356     
  31384000   267.05227     -350.44494     -272.18987     -350.30701      0              4563.1417      46.617849      20.047001      20.857         19491.869      4065.3192      6090.9806      3533.1253      13.677964      497.6148       31.230224    
  31384500   275.95288     -352.41194     -271.5487      -352.26134      0              2857.3476      46.612051      20.047001      20.857         19489.445      781.07967      4192.7586      3598.2045     -1358.1956      874.44196      247.31069    
  31385000   268.65081     -347.30358     -268.5801      -347.15742      0              5046.2753      46.218437      20.047001      20.857         19324.867      5760.0479      6452.3229      2926.4549     -2464.378       485.10035     -103.343      
  31385500   261.41609     -350.35649     -273.75302     -350.2109       0              3115.8377      46.286438      20.047001      20.857         19353.299      2662.4278      3378.7678      3306.3175     -17.006032     -732.8131      -411.6797     
  31386000   263.46637     -350.42468     -273.2204      -350.29414      0              4132.6357      46.310108      20.047001      20.857         19363.196      4332.3357      3402.0694      4663.502       834.20742      438.4236       1263.7829    
  31386500   269.08876     -349.66566     -270.81384     -349.58647      0              5202.9413      46.219871      20.047001      20.857         19325.466      6982.3128      4982.9149      3643.5961     -500.21215     -356.45896      372.21809    
  31387000   268.02957     -351.75343     -273.21199     -351.59466      0              7620.4967      46.102449      20.047001      20.857         19276.37       9251.4161      5854.2213      7755.8528     -1090.1199     -143.03644      123.69497    
  31387500   262.06183     -347.37217     -270.57947     -347.248        0              5629.1548      46.268509      20.047001      20.857         19345.803      8842.6216      2369.9148      5674.9281      606.67174     -219.93595      1013.5062    
  31388000   266.22053     -349.09357     -271.08224     -348.97399      0              5112.1808      46.520216      20.047001      20.857         19451.047      5346.8653      4449.2986      5540.3783      422.62658     -676.41188      1328.2751    
  31388500   262.35792     -350.58471     -273.70525     -350.46369      0              2673.4463      46.159966      20.047001      20.857         19300.419      3934.0153      2870.3143      1216.0095      946.97988      0.21263182     533.05818    
  31389000   272.64504     -350.9451      -271.05117     -350.80721      0              3276.8458      46.1182        20.047001      20.857         19282.956      2837.2814      5608.5217      1384.7342      198.29863      1235.7366      740.17403    
  31389500   277.52287     -350.41394     -269.09065     -350.27689      0              5219.1173      46.319204      20.047001      20.857         19366.999      5820.3256      4594.8434      5242.1828      682.99063     -204.61733     -2039.7123    
  31390000   277.05244     -350.00389     -268.81845     -349.86387      0              2897.3619      46.432376      20.047001      20.857         19414.319      4088.7453      2438.1061      2165.2342      104.16059     -171.69579     -274.38158    
  31390500   270.11479     -350.09263     -270.94015     -349.99226      0              5588.9588      45.966061      20.047001      20.857         19219.343      4806.7309      6875.6583      5084.4873      866.13727     -54.090676      284.045      
  31391000   267.23975     -351.11539     -272.80539     -350.94391      0              5880.3718      45.958103      20.047001      20.857         19216.016      7536.4121      4733.2489      5371.4543      854.71261      1026.0233     -1503.6162    
  31391500   262.22407     -348.47744     -271.6372      -348.32821      0              1694.2485      46.6265        20.047001      20.857         19495.486      621.03202      2662.5826      1799.1309      931.37121     -240.92985      768.98628    
  31392000   270.81693     -350.51832     -271.16009     -350.35704      0              2054.0704      46.635465      20.047001      20.857         19499.235      2628.8085      2378.0611      1155.3416     -1711.7836      193.095        697.44337    
  31392500   268.30973     -350.63021     -272.00668     -350.49112      0              5048.4756      46.044456      20.047001      20.857         19252.122      4530.8665      6104.0001      4510.5603      885.71414      1131.5064     -59.533931    
  31393000   268.02823     -348.94315     -270.40211     -348.80535      0              3934.7681      46.15254       20.047001      20.857         19297.314      3447.2689      4469.344       3887.6914     -1901.8594      356.64338     -57.061774    
  31393500   264.80711     -351.54816     -273.95101     -351.3856       0              3596.1358      46.274525      20.047001      20.857         19348.318      3988.9694      2736.719       4062.719      -1060.8904     -449.11226      454.51372    
  31394000   270.08133     -352.13312     -272.99045     -351.96583      0              4143.9901      46.239564      20.047001      20.857         19333.7        5519.2191      4326.4581      2586.2931      116.56345     -1961.8641     -358.46206    
  31394500   270.31738     -351.60604     -272.3942      -351.4341       0              2649.6815      46.350213      20.047001      20.857         19379.965      1150.5792      2684.3977      4114.0676      873.64122     -538.89442      1433.6689    
  31395000   274.38579     -351.23534     -270.83132     -351.09522      0              2331.6952      46.460712      20.047001      20.857         19426.167      3038.3759      1458.6027      2498.1071     -1063.1645     -937.96866      558.91899    
  31395500   271.68994     -349.79736     -270.18331     -349.65472      0              5281.0326      46.16906       20.047001      20.857         19304.221      6318.3938      3800.5014      5724.2025     -807.87653     -694.38251     -27.472713    
  31396000   274.06883     -350.80431     -270.49317     -350.66453      0              589.5497       46.220759      20.047001      20.857         19325.838      2738.3885     -87.761782     -881.97762      2235.3202      831.20638      1582.4025    
  31396500   266.95485     -348.73174     -270.50522     -348.5782       0              3523.6392      46.472219      20.047001      20.857         19430.978      2594.223       4692.5262      3284.1683      877.35134     -1581.0556      90.478727    
  31397000   266.96581     -348.87657     -270.64684     -348.70411      0              5504.1752      46.377542      20.047001      20.857         19391.392      7877.1142      4551.1955      4084.2159      1046.0272     -528.38627      875.38105    
  31397500   266.61497     -347.56805     -269.44114     -347.43313      0              4166.3858      46.343076      20.047001      20.857         19376.981      5726.665       2256.049       4516.4435      1773.8738     -352.29209      341.73793    
  31398000   267.28319     -349.70434     -271.38161     -349.5908       0              5950.3544      46.360539      20.047001      20.857         19384.282      3093.1512      7531.5229      7226.3892     -55.357262      1458.0431      2176.0632    
  31398500   263.63967     -349.20964     -271.95458     -349.04899      0              3098.2204      46.327689      20.047001      20.857         19370.547      4535.6199      1411.0989      3347.9423     -653.50001     -1083.1019      1319.9414    
  31399000   269.49915     -350.38494     -271.41286     -350.23395      0              3665.3337      46.163904      20.047001      20.857         19302.065      5870.3941      1798.1566      3327.4504     -28.98068      -30.959338      680.96581    
  31399500   264.96365     -349.09247     -271.44945     -348.93212      0              4797.841       46.253536      20.047001      20.857         19339.542      4679.4793      6164.1585      3549.8852      861.14332      138.62433     -1293.0824    
  31400000   271.94645     -350.47387     -270.78466     -350.32079      0              4167.5383      46.189095      20.047001      20.857         19312.598      4166.1141      4709.4303      3627.0704      348.00528      90.793114     -1042.479     
  31400500   271.45335     -347.23678     -267.69206     -347.08852      0              5214.6652      46.186769      20.047001      20.857         19311.626      6207.9109      7129.5428      2306.5419      120.27533      756.22246     -1893.2477    
  31401000   276.00879     -347.57979     -266.70018     -347.42499      0              5565.6112      46.402097      20.047001      20.857         19401.659      6080.7893      4814.0332      5802.0111     -1038.906      -266.11042      348.43323    
  31401500   269.97601     -347.15979     -268.04798     -347.02752      0              2514.9703      46.6002        20.047001      20.857         19484.49       4184.6523      2502.5491      857.70942      259.58903      457.96128      1955.0035    
  31402000   271.79475     -350.2594      -270.61464     -350.08669      0              1913.2267      46.40475       20.047001      20.857         19402.768      3583.5413     -1056.1622      3212.3011      499.25308     -229.41198      2462.3641    
  31402500   272.15519     -350.89958     -271.1492      -350.76563      0              4744.81        46.163598      20.047001      20.857         19301.937      5833.5342      4654.0952      3746.8005      581.28026      470.54667     -1562.2306    
  31403000   270.06237     -350.08768     -270.95056     -349.94043      0              3627.7068      46.140698      20.047001      20.857         19292.362      5737.9667      1124.2309      4020.9227      1179.9537      1662.9591      1264.1549    
  31403500   264.74457     -350.51653     -272.9377      -350.35261      0              2495.2064      46.36898       20.047001      20.857         19387.812      3733.0914     -124.52565      3877.0535     -662.02196     -159.51341     -2227.2075    
  31404000   268.74762     -352.74639     -273.99454     -352.5936       0              3213.3195      46.4859        20.047001      20.857         19436.698      3649.8961      4133.469       1856.5933     -172.58245      850.80265     -147.65015    
  31404500   275.73609     -350.75216     -269.95246     -350.5828       0              2506.055       46.508503      20.047001      20.857         19446.149      3447.689       2232.3459      1838.1302     -817.97349      256.33886      172.88908    
  31405000   270.08326     -350.69523     -271.55199     -350.54184      0              5962.2792      46.38109       20.047001      20.857         19392.875      8234.0907      5373.4991      4279.2477      950.94558     -194.92178      1927.1257    
  31405500   274.90831     -348.01613     -267.45899     -347.87782      0              3584.1673      46.496007      20.047001      20.857         19440.924      3096.5045      5036.6088      2619.3885      1836.2306     -223.99149      795.22888    
  31406000   269.09767     -350.44645     -271.59202     -350.31906      0              2731.7842      46.730118      20.047001      20.857         19538.811      4155.9523      1538.3189      2501.0813     -591.67865      281.33931     -1751.5494    
  31406500   262.43263     -348.52983     -271.62848     -348.37629      0              4684.471       46.467906      20.047001      20.857         19429.175      5855.1233      4292.4664      3905.8234      1346.516      -641.37144      724.05231    
  31407000   271.44579     -348.92845     -269.38595     -348.7578       0              4819.4865      46.301346      20.047001      20.857         19359.533      4641.1168      4722.1057      5095.237      -752.02793     -1561.019       301.79664    
  31407500   275.22798     -349.99564     -269.34483     -349.8238       0              3584.9861      46.218309      20.047001      20.857         19324.813      4570.5618      3238.3258      2946.0706      175.59316     -189.08746     -55.810673    
  31408000   269.84812     -347.80416     -268.72983     -347.67762      0              5245.4418      46.223801      20.047001      20.857         19327.109      6315.6803      6169.7186      3250.9264      672.73253      608.28503     -1738.7411    
  31408500   267.1472      -350.47174     -272.18886     -350.30851      0              4662.4049      46.252621      20.047001      20.857         19339.16       8013.3922      3432.9997      2540.8229     -612.64206     -720.25701     -472.05771    
  31409000   266.52545     -350.45866     -272.35797     -350.29595      0              5196.7535      46.262326      20.047001      20.857         19343.217      4481.7435      6518.5267      4589.9903     -1305.763       606.77678      2201.4922    
  31409500   277.37986     -349.96698     -268.68559     -349.79953      0              4828.2569      46.057536      20.047001      20.857         19257.591      5668.848       3790.7089      5025.2138     -368.14135     -212.7921      -1096.8445    
  31410000   276.63966     -352.93214     -271.86765     -352.79112      0              2717.2279      46.194265      20.047001      20.857         19314.76       3924.1042      1595.5301      2632.0492     -367.55234      184.49624      1002.6348    
  31410500   273.82109     -350.82796     -270.58942     -350.69232      0              4334.5277      46.293918      20.047001      20.857         19356.427      4565.8513      3216.0886      5221.6431     -471.89627     -483.77789      174.02672    
  31411000   268.11565     -350.07939     -271.51273     -349.91086      0              4618.9203      46.253093      20.047001      20.857         19339.357      4300.763       4828.9112      4727.0867      218.71298      1431.7509      130.74245    
  31411500   272.17441     -351.60263     -271.84661     -351.44535      0              4995.2392      46.313146      20.047001      20.857         19364.467      6415.5851      4286.4816      4283.6508     -382.56696      620.87225      305.21797    
  31412000   267.99982     -352.02069     -273.48796     -351.88545      0              4280.9641      46.177569      20.047001      20.857         19307.779      4602.9747      3766.7677      4473.1498      365.14913      467.43863     -1908.0646    
ERROR on proc 0: Cannot open restart file restart2.lmp.0: Permission denied (../write_restart.cpp:233)
Last command: run             40000000 upto
