LAMMPS (23 Jun 2022)
echo both

include		in.partitions
variable        pid world 0
include		in.temp
variable	temperature equal 270.0
variable        tempDamp equal 0.100 # this is 0.1 ps
include		in.pressure
variable        pressure equal 5066.25
variable        pressureDamp equal 1.0 #this is 1ps
include		in.seed
variable        seed world 745823

units           metal
atom_style	full
read_restart	restart.lmp.${pid}
read_restart	restart.lmp.0
Reading restart file ...
  restart file = 23 Jun 2022, LAMMPS = 23 Jun 2022
  restoring atom style full from restart
  orthogonal box = (0.54030235 0 0) to (46.910397 20.047001 20.857)
  4 by 1 by 1 MPI processor grid
Summary of lammps deepmd module ...
  >>> Info of deepmd-kit:
  installed to:       /u/sigbjobo/software/DEEPMD_FROM_SOURCE/deepmd-kit/install
  source:             v2.1.3
  source branch:       master
  source commit:      5a32c49
  source commit at:   2022-07-01 09:52:58 +0800
  surpport model ver.:1.1 
  build float prec:   double
  build with tf inc:  /u/sigbjobo/software/DEEPMD_FROM_SOURCE/tensorflow/install/include;/u/sigbjobo/software/DEEPMD_FROM_SOURCE/tensorflow/install/include
  build with tf lib:  /u/sigbjobo/software/DEEPMD_FROM_SOURCE/tensorflow/install/lib/libtensorflow_cc.so;/u/sigbjobo/software/DEEPMD_FROM_SOURCE/tensorflow/install/lib/libtensorflow_framework.so
  set tf intra_op_parallelism_threads: 0
  set tf inter_op_parallelism_threads: 0
  >>> Info of lammps module:
  use deepmd-kit at:  /u/sigbjobo/software/DEEPMD_FROM_SOURCE/deepmd-kit/install
  source:             v2.1.3
  source branch:      master
  source commit:      5a32c49
  source commit at:   2022-07-01 09:52:58 +0800
  build float prec:   double
  build with tf inc:  /u/sigbjobo/software/DEEPMD_FROM_SOURCE/tensorflow/install/include;/u/sigbjobo/software/DEEPMD_FROM_SOURCE/tensorflow/install/include
  build with tf lib:  /u/sigbjobo/software/DEEPMD_FROM_SOURCE/tensorflow/install/lib/libtensorflow_cc.so;/u/sigbjobo/software/DEEPMD_FROM_SOURCE/tensorflow/install/lib/libtensorflow_framework.so
  restoring pair style deepmd from restart
  2268 atoms
Finding 1-2 1-3 1-4 neighbors ...
  special bond factors lj:    0        0        0       
  special bond factors coul:  0        0        0       
     0 = max # of 1-2 neighbors
     0 = max # of 1-3 neighbors
     0 = max # of 1-4 neighbors
     1 = max # of special neighbors
  special bonds CPU = 0.000 seconds
  read_restart CPU = 0.033 seconds
include 	in.setup
variable	out_freq equal 500
variable	out_freq2 equal 1000
variable	out_freq3 equal 5000

timestep        0.0005

neigh_modify    delay 7 every 1

include         in.deepmd
# This is deepMD model

# create groups ###
#group ox type 2
#group hy type 1

mass 2 15.999
mass 1 1.008

pair_style      deepmd ../graph.pb
pair_coeff      * *

bond_style      none
angle_style     none
dihedral_style  none
improper_style  none
neigh_modify exclude none


neighbor        2.0 bin
neigh_modify    every 10 delay 0 check no

thermo          ${out_freq}
thermo          500
thermo_style 	custom step temp pe etotal epair emol press lx ly lz vol pxx pyy pzz pxy pxz pyz
#thermo_modify	flush yes
restart 	${out_freq} restart.lmp.${pid} restart2.lmp.${pid}
restart 	500 restart.lmp.${pid} restart2.lmp.${pid}
restart 	500 restart.lmp.0 restart2.lmp.${pid}
restart 	500 restart.lmp.0 restart2.lmp.0

include		in.dump
dump            myDump all atom ${out_freq3} dump.water.${pid}
dump            myDump all atom 5000 dump.water.${pid}
dump            myDump all atom 5000 dump.water.0
dump            myDump2 all dcd ${out_freq2} dump.dcd.${pid}
dump            myDump2 all dcd 1000 dump.dcd.${pid}
dump            myDump2 all dcd 1000 dump.dcd.0
dump_modify     myDump append yes
dump_modify     myDump2 append yes


timer           timeout 23:50:00 every 1000
New timer settings: style=normal  mode=nosync  timeout=23:50:00

fix             1 all plumed plumedfile plumed.dat outfile plumed.out
fix             3 all nph x ${pressure} ${pressure} ${pressureDamp}
fix             3 all nph x 5066.25 ${pressure} ${pressureDamp}
fix             3 all nph x 5066.25 5066.25 ${pressureDamp}
fix             3 all nph x 5066.25 5066.25 1
fix             4 all temp/csvr ${temperature} ${temperature} ${tempDamp} ${seed}
fix             4 all temp/csvr 270 ${temperature} ${tempDamp} ${seed}
fix             4 all temp/csvr 270 270 ${tempDamp} ${seed}
fix             4 all temp/csvr 270 270 0.1 ${seed}
fix             4 all temp/csvr 270 270 0.1 745823

run             40000000 upto

CITE-CITE-CITE-CITE-CITE-CITE-CITE-CITE-CITE-CITE-CITE-CITE-CITE

Your simulation uses code contributions which should be cited:

- USER-DEEPMD package:

@article{Wang_ComputPhysCommun_2018_v228_p178,
  author = {Wang, Han and Zhang, Linfeng and Han, Jiequn and E, Weinan},
  doi = {10.1016/j.cpc.2018.03.016},
  url = {https://doi.org/10.1016/j.cpc.2018.03.016},
  year = 2018,
  month = {jul},
  publisher = {Elsevier {BV}},
  volume = 228,
  journal = {Comput. Phys. Commun.},
  title = {{DeePMD-kit: A deep learning package for many-body potential energy representation and molecular dynamics}},
  pages = {178--184}
}

CITE-CITE-CITE-CITE-CITE-CITE-CITE-CITE-CITE-CITE-CITE-CITE-CITE

Generated 0 of 1 mixed pair_coeff terms from geometric mixing rule
Neighbor list info ...
  update every 10 steps, delay 0 steps, check no
  max neighbors/atom: 2000, page size: 100000
  master list distance cutoff = 8
  ghost atom cutoff = 8
  binsize = 4, bins = 12 6 6
  1 neighbor lists, perpetual/occasional/extra = 1 0 0
  (1) pair deepmd, perpetual
      attributes: full, newton on
      pair build: full/bin
      stencil: full/bin/3d
      bin: standard
Per MPI rank memory allocation (min/avg/max) = 7.209 | 7.21 | 7.211 Mbytes
   Step          Temp          PotEng         TotEng         E_pair         E_mol          Press            Lx             Ly             Lz           Volume          Pxx            Pyy            Pzz            Pxy            Pxz            Pyz      
  15100000   270.16489     -349.17552     -270.00836     -349.17552      0              4539.0857      46.370094      20.047001      20.857         19388.278      3638.3501      4013.8465      5965.0603      894.01915     -4.7613142     -478.59403    
  15100500   275.97238     -350.65766     -269.78871     -350.55301      0              3032.9154      46.279368      20.047001      20.857         19350.343      4240.7665      3325.327       1532.6526      1315.2006     -92.554823     -120.10324    
  15101000   268.78568     -348.2555      -269.4925      -348.09343      0              5297.7673      45.98555       20.047001      20.857         19227.492      5990.2051      6146.3124      3756.7846     -778.12327     -1638.912      -1536.6402    
  15101500   272.3926      -351.83548     -272.01553     -351.64284      0              3563.9116      46.235173      20.047001      20.857         19331.864      3870.5291      4421.6167      2399.589       111.974        1140.9046     -1026.1501    
  15102000   271.69797     -349.22233     -269.60593     -349.05273      0              3744.0484      46.462505      20.047001      20.857         19426.917      6026.7618      1322.4635      3882.9199     -724.58545     -107.35026     -2307.8653    
  15102500   272.98327     -348.29781     -268.30477     -348.15691      0              5006.5389      46.434967      20.047001      20.857         19415.402      6766.4348      4609.1944      3643.9876     -791.21604     -1387.3137     -122.19551    
  15103000   276.04044     -350.0795      -269.19061     -349.8903       0              6852.9261      46.119784      20.047001      20.857         19283.618      8250.2069      6451.8661      5856.7053     -846.7147      -60.345794      1257.9595    
  15103500   265.74418     -350.27713     -272.40538     -350.087        0              3311.1314      46.082277      20.047001      20.857         19267.935      5497.6384      1332.0458      3103.71       -19.049031      1588.0999      485.91661    
  15104000   262.59977     -349.24723     -272.29689     -349.10234      0              5505.6162      46.621448      20.047001      20.857         19493.374      6548.5702      5053.4289      4914.8495     -310.71317      1061.5044     -797.94686    
  15104500   261.97625     -348.87217     -272.10455     -348.69226      0              1732.4204      46.640185      20.047001      20.857         19501.208     -65.4515        2012.1866      3250.5262      882.32691      846.74043      2254.6952    
  15105000   265.76737     -347.66382     -269.78528     -347.48952      0              4099.0784      46.223848      20.047001      20.857         19327.129      4276.4602      4235.8347      3784.9402      575.61174      259.53164      1221.8387    
  15105500   268.01473     -350.24337     -271.70627     -350.05848      0              5403.2294      46.195361      20.047001      20.857         19315.218      5421.7542      6402.6358      4385.2982      1108.4731      1556.943      -1334.3198    
  15106000   270.83019     -350.77481     -271.4127      -350.58239      0              5737.5935      46.368381      20.047001      20.857         19387.561      5960.5854      6409.5944      4842.6007     -1174.7108     -62.91046      -790.34454    
  15106500   267.13638     -351.84547     -273.56576     -351.67203      0              6121.7802      46.51289       20.047001      20.857         19447.984      6649.811       5918.6829      5796.8466      1516.8386      363.25827     -119.65926    
  15107000   269.46378     -348.39812     -269.43641     -348.23222      0              4449.1949      46.434362      20.047001      20.857         19415.149      4128.851       4329.4221      4889.3117      1181.8083     -355.23679      861.90625    
  15107500   274.40228     -349.90044     -269.49159     -349.70758      0              5459.0448      46.057143      20.047001      20.857         19257.426      6583.085       4270.4091      5523.6402      1174.9292      1909.4589      1159.5723    
  15108000   268.79006     -350.67816     -271.91387     -350.50638      0              4960.6598      46.152076      20.047001      20.857         19297.12       4558.5262      5366.4924      4956.9607      926.68283      592.15961     -2168.8731    
  15108500   268.94009     -350.89794     -272.08968     -350.74445      0              3679.0131      46.422525      20.047001      20.857         19410.2        5238.8764      1380.3048      4417.8581      937.19326      796.54445     -1411.9587    
  15109000   269.79287     -347.03669     -267.97855     -346.85366      0              4645.2343      46.436405      20.047001      20.857         19416.003      5636.3023      4678.5218      3620.8787      238.34022     -190.61631     -405.82218    
  15109500   271.12324     -347.6885      -268.24051     -347.53159      0              3909.8163      46.128467      20.047001      20.857         19287.248      6415.0066      2157.7055      3156.7368      217.31749     -627.97414     -1490.5748    
  15110000   276.26307     -348.92647     -267.97235     -348.73512      0              5631.0112      46.069376      20.047001      20.857         19262.541      6382.4604      5476.3181      5034.2551      1302.7947      1351.6462      2777.8758    
  15110500   275.48918     -345.1043      -264.37695     -344.91784      0              4327.4379      46.146302      20.047001      20.857         19294.706      4783.3623      3978.2865      4220.6648     -305.1088      -1295.9546     -670.92804    
  15111000   270.27324     -347.40708     -268.20817     -347.22288      0              3522.9993      46.279123      20.047001      20.857         19350.241      4663.2417      1546.7097      4359.0465      81.800354      1457.5343     -946.47039    
  15111500   266.34643     -349.04142     -270.99319     -348.85623      0              7091.3662      46.437042      20.047001      20.857         19416.27       7484.7758      7669.6608      6119.662       250.63331     -553.19472     -192.49985    
  15112000   270.79889     -348.59629     -269.24334     -348.40378      0              5045.1764      46.345591      20.047001      20.857         19378.032      4102.4884      4564.1193      6468.9215      1568.9139      520.69711      633.80662    
  15112500   276.43591     -349.27662     -268.27184     -349.10246      0              3527.9767      46.321361      20.047001      20.857         19367.901      4455.2657      3550.1416      2578.5228      224.68953     -1913.3289      120.30609    
  15113000   275.46562     -348.62781     -267.90737     -348.46049      0              5111.9095      46.278181      20.047001      20.857         19349.847      6883.2307      4212.6802      4239.8176     -916.38383     -429.26739     -1773.8583    
  15113500   267.26362     -349.57652     -271.25953     -349.39216      0              5094.8911      46.338084      20.047001      20.857         19374.894      7704.4733      4338.8211      3241.3788      857.2307      -994.89045      667.62065    
  15114000   272.60307     -353.30458     -273.42295     -353.12075      0              2511.8121      46.535615      20.047001      20.857         19457.485      3458.582       468.8357       3608.0185     -1462.5734     -586.89838     -1308.993     
  15114500   265.9113      -352.1906      -274.26988     -351.99894      0              5190.7286      46.597155      20.047001      20.857         19483.217      6384.1349      6503.1475      2684.9033     -1423.9846     -1131.0519     -673.22687    
  15115000   270.34503     -350.12156     -270.90162     -349.94434      0              5177.1112      46.648765      20.047001      20.857         19504.796      9454.3776      2011.8786      4065.0776     -61.025245      902.77559      1505.8224    
  15115500   271.13334     -351.15918     -271.70823     -350.96833      0              5943.5095      46.627607      20.047001      20.857         19495.949      4559.8722      6205.1891      7065.4672     -853.00878     -986.3609       263.7017     
  15116000   269.54922     -349.75211     -270.76536     -349.56082      0              6013.4827      46.43137       20.047001      20.857         19413.899      7813.319       5403.0391      4824.0901      1829.8939     -629.49215      1323.8271    
  15116500   269.50603     -350.05438     -271.08029     -349.88295      0              5329.4636      46.326407      20.047001      20.857         19370.011      6033.8582      5184.6004      4769.9322      1619.1878      362.23906     -206.52277    
  15117000   272.38003     -351.60986     -271.79359     -351.41697      0              5028.7525      46.429119      20.047001      20.857         19412.957      6025.6863      3697.203       5363.3681     -525.88193     -828.27212     -303.39301    
  15117500   269.27469     -351.28929     -272.38299     -351.11927      0              4673.8841      46.783093      20.047001      20.857         19560.961      6289.5295      3232.6606      4499.4622      1656.5919      1871.0055      1635.0812    
  15118000   269.27887     -353.19075     -274.28323     -353.00951      0              3544.4919      46.757639      20.047001      20.857         19550.318      2604.6727      3186.3633      4842.4398     -45.359023      791.72007     -1023.3877    
  15118500   263.86042     -348.55695     -271.2372      -348.36907      0              4558.1823      46.316093      20.047001      20.857         19365.699      5092.3209      4002.6992      4579.5267     -361.88763     -210.74945     -223.85045    
  15119000   269.1752      -350.68402     -271.80687     -350.56431      0              5635.9865      46.284498      20.047001      20.857         19352.488      5648.6369      6990.0489      4269.2739     -2011.2116      1817.9764      1315.3516    
  15119500   267.5702      -350.80816     -272.40133     -350.67083      0              4086.338       46.546924      20.047001      20.857         19462.214      1406.2077      6362.5211      4490.2852      1845.4456     -699.24532     -290.03039    
  15120000   269.09456     -353.12492     -274.2714      -352.95504      0              2843.847       46.641102      20.047001      20.857         19501.591      3134.2553      1880.0328      3517.2528     -74.243758     -653.0485      -381.25909    
  15120500   265.05036     -350.4519      -272.78347     -350.26845      0              7158.3161      46.335271      20.047001      20.857         19373.718      8749.5038      7649.6432      5075.8011      464.26383     -770.36692      120.74464    
  15121000   263.42815     -352.27847     -275.08539     -352.12228      0              5924.7608      46.319006      20.047001      20.857         19366.917      4437.9391      7686.0844      5650.2589     -1233.4294      1963.8693     -108.70611    
  15121500   262.40027     -352.23488     -275.343       -352.06148      0              4932.8688      46.535056      20.047001      20.857         19457.251      7108.7205      2116.1913      5573.6945      1424.9462      819.02749     -240.66412    
  15122000   270.62504     -351.8864      -272.5844      -351.69563      0              5238.0393      46.577061      20.047001      20.857         19474.815      5932.8901      5794.1647      3987.0632      535.2459      -482.38338      633.10584    
  15122500   270.9079      -349.69413     -270.30925     -349.50131      0              3649.4403      46.501815      20.047001      20.857         19443.353      4350.7138      3459.8461      3137.7611      1141.8214      532.59545      703.03028    
  15123000   266.42767     -351.12459     -273.05256     -350.96193      0              3960.5569      46.469193      20.047001      20.857         19429.713      2797.7903      3228.486       5855.3944     -256.93002      1496.3715     -756.03652    
  15123500   270.9505      -350.33849     -270.94113     -350.15261      0              4174.7459      46.430867      20.047001      20.857         19413.688      5936.7348      4179.892       2407.6109     -20.730795      958.60861      1207.3616    
  15124000   277.36469     -350.3513      -269.07436     -350.15845      0              3529.1627      46.46355       20.047001      20.857         19427.353      4536.986       3405.3192      2645.1829      66.321366      821.19165      1542.0307    
  15124500   264.23992     -348.87845     -271.4475      -348.70784      0              6543.2065      46.443178      20.047001      20.857         19418.836      7983.6246      7035.4624      4610.5324     -133.41018      1878.964      -580.69619    
  15125000   281.82681     -349.35482     -266.77033     -349.19841      0              4030.9436      46.476851      20.047001      20.857         19432.915      5070.3523      3889.3279      3133.1506      220.93343      1004.0194     -817.56146    
  15125500   269.88446     -348.7194      -269.63442     -348.55683      0              5460.1371      46.496681      20.047001      20.857         19441.206      6634.5508      4868.4218      4877.4386      352.64672      159.84066     -745.37099    
  15126000   279.46636     -348.27678     -266.38398     -348.09973      0              2862.9132      46.410817      20.047001      20.857         19405.305      3941.3345      1053.9235      3593.4817      685.46191     -558.93514      1950.203     
  15126500   270.13878     -351.32677     -272.16726     -351.17358      0              2303.6273      46.601813      20.047001      20.857         19485.164      3223.5109      4067.7278     -380.35679      523.44372     -781.25614     -186.22914    
  15127000   277.90679     -350.9682      -269.53241     -350.80481      0              4159.3834      46.614954      20.047001      20.857         19490.659      5271.0393      3462.4445      3744.6663      1155.6243      1460.8478     -804.20325    
  15127500   269.51964     -349.33558     -270.3575      -349.15081      0              5724.5646      46.166983      20.047001      20.857         19303.353      5101.2977      6966.1031      5106.2929     -265.58224      473.49434     -75.716933    
  15128000   264.31769     -349.08463     -271.6309      -348.89336      0              3647.6565      46.117679      20.047001      20.857         19282.738      5825.5058      2697.1939      2420.2698      148.33926      1058.0665     -1195.3816    
  15128500   263.09013     -346.87356     -269.77953     -346.72632      0              8104.4019      46.345226      20.047001      20.857         19377.88       9998.6699      7543.8699      6770.6659     -391.43698      1469.9595      882.19031    
  15129000   267.28127     -351.02922     -272.70705     -350.88024      0              4631.4408      46.619714      20.047001      20.857         19492.649      5271.1577      3681.9687      4941.1962     -634.67837      1055.4758     -1308.4903    
  15129500   270.23338     -347.88201     -268.69478     -347.71762      0              5847.1823      46.148909      20.047001      20.857         19295.796      5850.8307      5806.8713      5883.8448      736.07808     -344.45688     -181.46401    
  15130000   277.89409     -346.77427     -265.3422      -346.64766      0              5124.0118      45.958953      20.047001      20.857         19216.371      7561.1174      2430.3751      5380.5429      320.02818     -100.687        2236.9271    
  15130500   269.3937      -347.77706     -268.83588     -347.66594      0              4715.9233      46.494967      20.047001      20.857         19440.489      3943.6448      5512.4983      4691.6269      363.21008     -487.90934      86.777886    
  15131000   281.71104     -348.65858     -266.10802     -348.52482      0              3323.4031      46.479992      20.047001      20.857         19434.228      5155.6796      3929.1121      885.41746      120.61686     -1460.7496      490.19645    
  15131500   269.84702     -348.30636     -269.23234     -348.13408      0              4412.1212      46.287896      20.047001      20.857         19353.909      4177.3582      3694.765       5364.2404     -1198.0113     -457.38971     -213.39054    
  15132000   270.95773     -350.239       -270.83951     -350.0742       0              3383.8273      46.376948      20.047001      20.857         19391.143      4473.6849      2172.5849      3505.2121     -124.30695     -639.48879     -157.80582    
  15132500   271.22751     -347.91282     -268.43428     -347.78755      0              3640.3933      46.53808       20.047001      20.857         19458.516      4243.8573      1512.3129      5165.0098      861.3888       1067.6702     -438.02268    
  15133000   274.64006     -348.34473     -267.8662      -348.24716      0              4974.5624      46.560392      20.047001      20.857         19467.845      4691.4136      4421.1814      5811.0923      527.01605     -540.19973      1224.9287    
  15133500   263.58095     -349.53554     -272.29769     -349.40135      0              3787.7901      46.290354      20.047001      20.857         19354.937      3266.734       3307.2126      4789.4237      7.1755516     -751.1444      -202.03649    
  15134000   268.90961     -351.84045     -273.04113     -351.68515      0              4668.5256      46.13202       20.047001      20.857         19288.734      7630.0176      2611.4914      3764.0677     -747.13539     -579.33415      801.83028    
  15134500   270.09463     -353.91344     -274.76687     -353.72518      0              4428.9679      46.263115      20.047001      20.857         19343.548      5719.6623      5224.2613      2342.9801     -183.68057     -743.9127       1129.9134    
  15135000   268.40997     -352.93508     -274.28217     -352.74297      0              2664.122       46.405         20.047001      20.857         19402.872      2200.3158      3879.1519      1912.8983      498.5536      -1472.4627      131.62867    
  15135500   268.96787     -350.67737     -271.86097     -350.54726      0              3563.4605      46.214799      20.047001      20.857         19323.346      4598.6769      2598.2638      3493.4409      447.90219      1134.874       1972.6283    
  15136000   266.38118     -349.95412     -271.89571     -349.78246      0              5228.7264      46.088022      20.047001      20.857         19270.337      7119.6187      4071.7508      4494.8099     -488.40664      2130.306       1573.3013    
  15136500   268.54055     -351.44782     -272.75664     -351.30456      0              3504.4395      46.393057      20.047001      20.857         19397.879      6952.0485      3169.4121      391.85803     -440.30697      1047.8023     -3344.6315    
  15137000   263.07458     -348.86309     -271.77362     -348.67167      0              6348.5735      46.227038      20.047001      20.857         19328.463      8019.9936      5138.9384      5886.7886      604.77638      2395.5174     -2391.5864    
  15137500   262.31448     -349.33183     -272.4651      -349.16096      0              4298.575       46.128358      20.047001      20.857         19287.203      3997.3204      4102.9226      4795.4819      253.11227     -673.56909     -525.04993    
  15138000   265.64715     -347.86718     -270.02386     -347.74938      0              3010.7148      46.44754       20.047001      20.857         19420.659      2231.9466      4455.2847      2344.913      -1489.8918     -45.280082     -610.3186     
  15138500   274.61363     -350.55692     -270.08613     -350.40465      0              5046.5286      46.473496      20.047001      20.857         19431.512      5415.6926      4885.0022      4838.8911     -673.56396      54.053055      561.02576    
  15139000   271.81947     -351.23445     -271.58244     -351.09474      0              5855.0127      46.308088      20.047001      20.857         19362.352      6574.279       6515.4943      4475.2649      679.79401     -1168.8635      822.44534    
  15139500   274.01013     -349.35026     -269.05632     -349.19293      0              5707.3038      46.17557       20.047001      20.857         19306.943      6143.4122      5679.8381      5298.6611      1455.8454      93.916848      1469.9159    
  15140000   266.11531     -349.56257     -271.58207     -349.45631      0              4298.131       46.447463      20.047001      20.857         19420.627      2540.5698      5833.4325      4520.3906     -613.56041      1304.0118     -20.383634    
  15140500   271.78394     -353.29809     -273.6565      -353.10786      0              3234.1465      46.680874      20.047001      20.857         19518.221      4857.1197      1110.5511      3734.7688     -319.83039      178.5008       234.59658    
  15141000   263.30706     -351.05254     -273.89495     -350.88026      0              5825.1499      46.410066      20.047001      20.857         19404.991      6754.9401      3848.725       6871.7847      196.01842      243.12504      655.28959    
  15141500   273.55107     -352.05881     -271.89938     -351.87288      0              4802.2346      46.259521      20.047001      20.857         19342.045      6436.509       5304.7465      2665.4483      1930.2812     -1123.9064     -1506.263     
  15142000   270.60814     -351.05501     -271.75797     -350.94917      0              5157.5426      46.290942      20.047001      20.857         19355.182      4248.2837      5725.3073      5499.0367     -920.82878      1513.0127     -1068.6803    
  15142500   273.22403     -352.40629     -272.3427      -352.23074      0              5162.561       46.347725      20.047001      20.857         19378.925      4894.8633      5179.8423      5412.9775     -608.68784     -1076.1001      72.109467    
  15143000   267.08861     -348.71299     -270.44728     -348.53599      0              3363.8751      46.328057      20.047001      20.857         19370.701      2731.5289      3797.3584      3562.7381      51.564202     -1945.4995      2369.6457    
  15143500   272.66448     -350.88767     -270.98805     -350.71403      0              5169.4829      46.270378      20.047001      20.857         19346.584      4842.0271      6223.4585      4442.9632      264.9578       357.01647     -206.05476    
  15144000   257.26081     -348.79941     -273.41357     -348.62031      0              5131.7443      46.43675       20.047001      20.857         19416.148      4590.1594      5571.8108      5233.2626     -3.42254        1499.7624      0.16953738   
  15144500   267.75069     -350.14385     -271.68413     -349.97057      0              6095.2517      46.399914      20.047001      20.857         19400.746      7686.7369      4119.9866      6479.0316     -531.19513     -187.26843      507.94218    
  15145000   268.06451     -352.22141     -273.66972     -352.04774      0              2812.7869      46.112247      20.047001      20.857         19280.467      3549.4053      2130.0871      2758.8684     -259.58878      539.17384     -346.62344    
  15145500   263.49979     -352.12991     -274.91585     -351.9399       0              4107.8861      46.269093      20.047001      20.857         19346.047      4082.2188      4699.3416      3542.0979      879.10087     -621.27396      1570.6218    
  15146000   264.9282      -349.49734     -271.8647      -349.31326      0              4730.7005      46.169359      20.047001      20.857         19304.346      5641.6829      4996.2234      3554.1951      352.52436      1658.7172      509.29336    
  15146500   272.46916     -350.64873     -270.80634     -350.48257      0              4994.9729      46.16253       20.047001      20.857         19301.491      5296.0368      5667.4451      4021.4368      122.73422      298.91846      136.82805    
  15147000   269.35589     -350.20265     -271.27256     -350.04844      0              5427.4811      46.074545      20.047001      20.857         19264.703      6325.0885      5052.6345      4904.7204      592.42782     -197.468       -1733.7857    
  15147500   269.34806     -348.4974      -269.56959     -348.3564       0              6335.3518      45.987355      20.047001      20.857         19228.247      5971.4192      7538.5325      5496.1038     -1156.8137     -1069.4128     -1423.3184    
  15148000   266.33614     -350.81268     -272.76747     -350.66049      0              3589.9799      46.303847      20.047001      20.857         19360.578      2599.6993      4560.7341      3609.5062      53.100132      1266.986      -609.36582    
  15148500   268.48302     -350.00575     -271.33143     -349.82705      0              1161.7172      46.260251      20.047001      20.857         19342.35       2290.0741      2191.9171     -996.83981      1163.8414      747.14286     -646.46081    
  15149000   280.54642     -351.26716     -269.05787     -351.09349      0              5345.1098      46.105252      20.047001      20.857         19277.542      6606.6134      3972.3151      5456.4009     -62.151845     -34.928429      1311.1405    
  15149500   279.46232     -347.61711     -265.7255      -347.44991      0              5778.7135      46.243622      20.047001      20.857         19335.397      6874.4326      4409.2717      6052.4363     -194.10473      523.38618      874.75327    
  15150000   266.5891      -348.09332     -269.97398     -347.90133      0              2686.9862      46.374775      20.047001      20.857         19390.235      1904.7428      3032.8201      3123.3956      575.49582     -529.86308      2263.2076    
  15150500   270.75333     -349.96196     -270.62236     -349.81236      0              5855.5629      46.244857      20.047001      20.857         19335.913      7536.6031      4620.9301      5409.1554     -128.26688      1238.5042     -1346.2943    
  15151000   276.79369     -348.72365     -267.61403     -348.54971      0              4989.3117      46.106229      20.047001      20.857         19277.95       7509.6255      4529.3017      2929.0079     -845.59475      1591.1216     -706.91385    
  15151500   272.9551      -349.54111     -269.55633     -349.3954       0              2522.441       46.306392      20.047001      20.857         19361.643      2077.0152      3780.9676      1709.3401     -53.31149       743.23758     -1237.0774    
  15152000   274.85717     -352.22388     -271.68173     -352.04481      0              5897.7245      46.229785      20.047001      20.857         19329.612      5265.2382      6947.4896      5480.4457      373.82474      730.33134      622.89065    
  15152500   269.79963     -347.20999     -268.14987     -347.04547      0              4397.6257      45.895957      20.047001      20.857         19190.031      6334.4416      2859.1956      3999.2398     -142.20402      357.3748      -302.35766    
  15153000   268.04834     -350.07228     -271.52533     -349.91203      0              5979.7162      46.127535      20.047001      20.857         19286.859      5283.7369      6658.2965      5997.1151     -729.52046     -333.64563      2239.9995    
  15153500   272.23889     -350.82994     -271.05503     -350.66185      0              5926.0064      46.418561      20.047001      20.857         19408.542      7904.7865      3300.4639      6572.7687      899.39692     -497.43335      228.27822    
  15154000   272.36344     -349.57828     -269.76687     -349.40158      0              5694.4484      46.250398      20.047001      20.857         19338.23       4801.6997      5789.0455      6492.6        -14.776649     -1609.3735     -114.70622    
  15154500   266.52644     -352.49755     -274.39658     -352.3244       0              4105.1636      46.151844      20.047001      20.857         19297.023      6462.8682      860.36343      4992.2593      877.39448     -884.40384     -97.96392     
  15155000   273.59361     -351.00429     -270.8324      -350.87555      0              7276.1787      46.068263      20.047001      20.857         19262.076      8292.7098      8851.4705      4684.3558      1621.8388     -1725.2675      1089.3921    
  15155500   270.92615     -351.70909     -272.31885     -351.54853      0              3442.0085      46.310883      20.047001      20.857         19363.52       5971.8551      3191.2311      1162.9392      620.56192     -1073.166       1239.5877    
  15156000   275.20632     -348.25302     -267.60856     -348.12284      0              2471.3069      46.296488      20.047001      20.857         19357.502      1011.8639      3806.1041      2595.9527     -269.47203     -910.3998      -554.74749    
  15156500   269.24655     -349.37041     -270.47235     -349.18802      0              7017.4242      46.281523      20.047001      20.857         19351.244      8211.9959      6705.2366      6135.0401      738.75834     -204.47777     -1796.4498    
  15157000   257.52215     -348.63599     -273.17357     -348.46695      0              4906.0661      46.388621      20.047001      20.857         19396.024      5251.2061      4227.2761      5239.7161      724.2853       22.970814      502.69425    
  15157500   266.09966     -349.47266     -271.49675     -349.33695      0              6209.5189      46.157152      20.047001      20.857         19299.242      8159.1282      4901.9848      5567.4436      186.87432      1564.1462      1207.2523    
  15158000   267.25214     -350.27977     -271.96614     -350.12771      0              6570.0067      45.980159      20.047001      20.857         19225.238      8948.4812      6252.107       4509.4318     -283.29927      430.62407     -495.3673     
  15158500   273.32147     -350.18933     -270.09719     -350.05836      0              4672.9993      46.334673      20.047001      20.857         19373.467      2089.413       6120.9387      5808.6463     -3.0777159      144.63127      779.09891    
  15159000   267.65703     -349.75464     -271.32236     -349.71539      0              4333.0659      46.647644      20.047001      20.857         19504.327      4948.5218      4202.8412      3847.8349     -268.03772      374.49921     -2242.4428    
  15159500   278.42183     -350.68434     -269.09763     -350.56382      0              4757.1105      46.196318      20.047001      20.857         19315.618      3136.1471      7843.3284      3291.8561     -532.93653      94.576706      1035.3748    
  15160000   275.94836     -352.15051     -271.28861     -352.00379      0              5899.3933      45.992491      20.047001      20.857         19230.394      5548.0148      7314.4179      4835.7471      441.93828     -66.303661      334.03985    
  15160500   273.97191     -351.16869     -270.88594     -351.05522      0              4746.8517      46.046389      20.047001      20.857         19252.93       3561.4197      4514.981       6164.1544     -1808.7988      1242.9744      590.55666    
  15161000   272.25933     -350.27769     -270.49679     -350.15832      0              5976.5563      45.978699      20.047001      20.857         19224.627      6748.1582      4404.1022      6777.4084      1536.3522     -885.68103      183.001      
  15161500   275.53701     -348.76939     -268.02803     -348.62638      0              4498.4185      45.81457       20.047001      20.857         19156.002      4969.4791      5961.4695      2564.3068     -57.335336      630.11106     -1162.4192    
  15162000   269.81949     -347.7281      -268.66216     -347.64682      0              3611.3052      46.082097      20.047001      20.857         19267.86       3168.2727      3556.7191      4108.9238      774.8134       1571.0615     -287.63278    
  15162500   268.2095      -348.81445     -270.22028     -348.63819      0              3909.85        46.358105      20.047001      20.857         19383.265      4939.4379      2623.6906      4166.4216      1674.435      -481.34457     -722.74636    
  15163000   276.75554     -345.66753     -264.5691      -345.55187      0              4761.3891      46.283912      20.047001      20.857         19352.243      5419.4006      4220.3752      4644.3915      678.7737      -951.99812      323.78797    
  15163500   271.26537     -349.71075     -270.22111     -349.56048      0              2505.2539      46.005114      20.047001      20.857         19235.672      475.57202      4563.1432      2477.0464     -50.772527      2221.9577     -632.37842    
  15164000   283.17896     -350.51446     -267.53375     -350.40588      0              6384.9162      45.917975      20.047001      20.857         19199.238      7794.0548      5895.8969      5464.797      -57.408716      270.19308     -452.07886    
  15164500   267.70673     -350.58494     -272.1381      -350.44578      0              4246.4502      46.361927      20.047001      20.857         19384.863      2598.1358      5074.3948      5066.82       -1641.2741      3051.8848     -854.43937    
  15165000   257.85971     -350.56557     -275.00423     -350.46183      0              3965.4653      46.4781        20.047001      20.857         19433.437      4479.0206      4261.5092      3155.8662      26.299958      976.0258      -558.69244    
  15165500   261.24027     -349.40305     -272.85109     -349.29071      0              4952.4006      45.990617      20.047001      20.857         19229.611      6880.1546      4147.8462      3829.201       591.74085     -67.858617      934.41757    
  15166000   272.05772     -347.85397     -268.13215     -347.66711      0              4887.1553      45.754386      20.047001      20.857         19130.837      3367.4093      4067.4674      7226.5892     -524.47496     -1633.4478     -1220.2148    
  15166500   274.55662     -348.22034     -267.76626     -348.1162       0              2795.8184      46.12266       20.047001      20.857         19284.821      3801.0023      350.36632      4236.0864      694.62196     -440.95944      839.33731    
  15167000   272.69299     -352.03896     -272.13098     -351.90657      0              5228.6542      46.136805      20.047001      20.857         19290.735      4889.4183      5475.9627      5320.5816     -534.78461      646.85927     -1066.9001    
  15167500   269.01383     -350.7761      -271.94623     -350.6214       0              4709.4327      46.058911      20.047001      20.857         19258.166      5596.1966      4322.864       4209.2377      462.00475      1111.9804      1218.5073    
  15168000   269.263       -352.84732     -273.94445     -352.70576      0              3112.0997      46.045236      20.047001      20.857         19252.448      1220.0552      4187.6357      3928.6083     -1137.852       70.192117     -510.00402    
  15168500   270.09535     -349.33197     -270.18519     -349.19802      0              5849.5853      46.003798      20.047001      20.857         19235.122      7177.0302      5575.8334      4795.8922      1855.4657      854.4149       927.24841    
  15169000   265.13267     -350.96977     -273.27721     -350.81363      0              5624.4319      46.276564      20.047001      20.857         19349.171      6326.8601      6100.4655      4445.97       -293.0954      -569.8886      -2070.3407    
  15169500   271.14651     -351.71111     -272.2563      -351.57483      0              4483.5571      46.477475      20.047001      20.857         19433.176      4933.1423      3376.9476      5140.5814     -724.99113      154.89948      400.54482    
  15170000   263.79567     -349.68659     -272.38582     -349.53833      0              4062.8241      46.325405      20.047001      20.857         19369.592      6161.3763      1777.763       4249.3329      244.08861     -1323.8902     -1999.7558    
  15170500   262.89662     -349.5279      -272.49059     -349.3794       0              4483.2555      46.00524       20.047001      20.857         19235.725      5415.0766      2031.3094      6003.3805     -10.427776      661.11663      1131.9907    
  15171000   264.80985     -350.32478     -272.72682     -350.18051      0              3836.9145      45.949334      20.047001      20.857         19212.349      5170.8874      2435.2744      3904.5818     -1202.6407     -1381.2953      1160.7572    
  15171500   270.3353      -349.96698     -270.74989     -349.78775      0              4619.1299      46.131553      20.047001      20.857         19288.539      5864.5839      6418.4886      1574.317      -559.54292     -422.87515     -1531.7587    
  15172000   269.97836     -345.10304     -265.99053     -344.98719      0              5029.7503      46.445116      20.047001      20.857         19419.646      4517.4709      4721.963       5849.817       1031.4494     -117.75968      840.89696    
  15172500   268.01793     -348.31999     -269.78196     -348.18235      0              5116.7908      46.052099      20.047001      20.857         19255.317      7590.0781      2786.0428      4974.2516     -759.19931      891.2879      -807.30402    
  15173000   268.99068     -349.4093      -270.58623     -349.2748       0              6591.7231      45.793933      20.047001      20.857         19147.373      6862.5285      4559.2943      8353.3465     -1691.4943      443.8328      -429.44852    
  15173500   275.96342     -348.92589     -268.05957     -348.82858      0              7275.148       46.202504      20.047001      20.857         19318.205      8135.329       8397.0969      5293.0182      922.51205     -866.93409     -898.45022    
  15174000   271.56978     -348.42896     -268.85012     -348.29755      0              3764.3818      46.431795      20.047001      20.857         19414.076      1943.6985      2602.2551      6747.1918      1108.9849      264.72833      1236.8534    
  15174500   265.07469     -347.30665     -269.63108     -347.16955      0              4889.6215      46.182501      20.047001      20.857         19309.841      6584.8099      4706.5386      3377.5161      500.03161      1202.9315      1199.8527    
  15175000   269.52984     -347.62196     -268.64089     -347.48703      0              5232.1953      46.022307      20.047001      20.857         19242.861      7925.6465      4050.779       3720.1606     -773.47923     -1007.0662      216.73526    
  15175500   273.4753      -349.19917     -269.06195     -349.0956       0              6448.9312      45.862051      20.047001      20.857         19175.854      5986.1676      6881.8025      6478.8236     -833.93977     -2214.0161     -190.47809    
  15176000   264.72725     -348.62236     -271.0486      -348.55617      0              5095.5274      46.015973      20.047001      20.857         19240.212      5854.1848      4823.234       4609.1635     -205.70945      10.722402     -600.43394    
  15176500   259.9115      -352.62475     -276.46217     -352.49252      0              7057.8915      46.369785      20.047001      20.857         19388.148      7240.7786      5184.3481      8748.5477     -979.33719     -3.8521767     -1276.7569    
  15177000   267.60785     -352.5137      -274.09583     -352.3441       0              4717.6041      45.928282      20.047001      20.857         19203.547      5550.9781      5030.0962      3571.7379     -498.26422     -664.07555     -221.14047    
  15177500   274.70001     -352.069       -271.5729      -351.88725      0              8913.8964      45.525699      20.047001      20.857         19035.219      10062.126      7063.4672      9616.0961     -136.26121     -417.0783      -600.80427    
  15178000   270.60688     -346.08912     -266.79244     -346.01256      0              5498.1061      46.058887      20.047001      20.857         19258.156      3863.5927      7036.6682      5594.0574     -26.056514     -739.36045     -580.27328    
  15178500   268.46852     -350.56583     -271.89577     -350.45617      0              3504.2216      46.195317      20.047001      20.857         19315.2        4022.7757      3348.5343      3141.3548      264.04295     -719.70748      166.21138    
  15179000   266.55921     -351.5151      -273.40452     -351.35837      0              4392.9478      45.973803      20.047001      20.857         19222.58       4141.6258      4639.4821      4397.7354     -578.2079       316.62018      1509.948     
  15179500   267.20024     -348.70581     -270.40739     -348.5597       0              4411.7647      45.913001      20.047001      20.857         19197.158      3406.8927      5207.9149      4620.4865     -127.40022      1799.5289     -534.9644     
  15180000   271.3627      -348.96377     -269.44561     -348.78266      0              4395.378       46.193129      20.047001      20.857         19314.285      3235.4658      4185.3257      5765.3427      77.96555      -422.71077      1056.6706    
  15180500   266.13596     -347.8006      -269.81405     -347.65923      0              3870.1704      46.205667      20.047001      20.857         19319.527      2846.2558      3586.3186      5177.9369      1625.3248      1113.8921      160.24578    
  15181000   266.23759     -348.55289     -270.53656     -348.4009       0              6245.8447      45.935938      20.047001      20.857         19206.748      6520.1478      5343.16        6874.2261     -205.59534      1347.8902      210.43055    
  15181500   265.94464     -348.42185     -270.49136     -348.25107      0              5481.0697      46.177156      20.047001      20.857         19307.606      6567.0621      4865.0572      5011.09       -683.08536     -1060.6039     -234.7446     
  15182000   266.35932     -349.6852      -271.63319     -349.53791      0              3721.2222      46.36954       20.047001      20.857         19388.046      3844.4043      3191.7153      4127.5468      284.0886      -46.582927      318.62446    
  15182500   277.89362     -347.78515     -266.35322     -347.64431      0              6349.026       46.244311      20.047001      20.857         19335.685      7286.1819      7783.7375      3977.1587     -639.93111      58.802275      457.56781    
  15183000   272.14311     -348.71444     -268.96759     -348.60459      0              3896.3851      46.01637       20.047001      20.857         19240.378      3200.6316      3821.0726      4667.4511      430.99233      1440.8805      1457.4094    
  15183500   263.49528     -347.2003      -269.98755     -347.11654      0              4860.8726      46.178838      20.047001      20.857         19308.31       4855.0979      5801.0337      3926.4861     -82.183447     -22.947417      1418.6852    
  15184000   279.01628     -348.25746     -266.49656     -348.15596      0              5346.4619      46.508587      20.047001      20.857         19446.184      7330.2871      4956.3165      3752.7821      89.042645      1014.2803     -148.26057    
  15184500   265.49132     -349.2626      -271.46495     -349.11395      0              4327.2255      46.783394      20.047001      20.857         19561.087      6236.5554      2572.6964      4172.4249     -669.85206      176.88037      288.9711     
  15185000   268.39034     -348.70718     -270.06002     -348.6073       0              5331.2644      46.42743       20.047001      20.857         19412.251      7228.9829      3693.9365      5070.8738      792.56136     -743.26298      677.75531    
  15185500   273.66891     -346.95639     -266.76243     -346.81478      0              4187.4326      46.238379      20.047001      20.857         19333.205      5786.71        2458.8421      4316.7456      660.04779     -966.51959     -152.22841    
  15186000   271.21665     -347.94071     -268.46535     -347.87246      0              4144.1139      46.396675      20.047001      20.857         19399.392      4379.9251      4216.4188      3835.9978     -169.88107      357.41729     -213.99215    
  15186500   265.23615     -349.14284     -271.41996     -349.04214      0              3659.765       46.20749       20.047001      20.857         19320.29       4361.1175      4654.8264      1963.3512     -1916.8753      127.64812      109.40196    
  15187000   268.31374     -349.15748     -270.53276     -349.04318      0              4934.6917      45.97771       20.047001      20.857         19224.214      3487.4748      5320.2986      5996.3017      2020.4061     -480.48432      347.16034    
  15187500   273.21034     -350.86041     -270.80083     -350.73758      0              1362.3889      46.174174      20.047001      20.857         19306.36       5145.1948     -895.16654     -162.86171     -143.00235      102.9985       24.11509     
  15188000   276.10047     -348.92671     -268.02023     -348.81566      0              6433.1291      46.393733      20.047001      20.857         19398.162      4132.9971      9769.4969      5396.8934      246.84568      1631.2454     -170.91978    
  15188500   272.26332     -349.00761     -269.22554     -348.87563      0              4072.8095      46.354935      20.047001      20.857         19381.939      5796.0177      4218.9623      2203.4486     -1528.5956      2336.1739     -906.2805     
  15189000   263.36658     -351.38212     -274.20709     -351.26747      0              3530.1155      46.048416      20.047001      20.857         19253.778      5245.9445      2011.2576      3333.1443      67.711866     -840.79805     -311.18551    
  15189500   262.29648     -350.84927     -273.98782     -350.68665      0              5378.0672      45.939693      20.047001      20.857         19208.318      5851.2486      5531.7735      4751.1795      1451.6851     -1455.4766      1166.5206    
  15190000   261.20541     -351.39849     -274.85675     -351.24995      0              4606.1757      46.120444      20.047001      20.857         19283.894      5659.1868      3835.8497      4323.4905     -1303.5135     -1101.1339     -824.11594    
  15190500   267.98555     -348.65814     -270.1296      -348.54826      0              3916.2963      46.03513       20.047001      20.857         19248.222      5307.3643      3186.9214      3254.6031     -318.2214      -41.076996     -530.01722    
  15191000   275.22513     -352.1743      -271.52432     -352.01248      0              3851.353       45.979147      20.047001      20.857         19224.815      4288.7465      2324.3686      4940.9438      829.97004     -617.10758     -496.24641    
  15191500   265.68932     -350.15515     -272.29948     -350.01845      0              6029.5155      46.116526      20.047001      20.857         19282.256      5285.0612      6198.2488      6605.2365     -1192.0991      1616.9444      423.43301    
  15192000   276.0124      -351.06099     -270.18032     -350.89997      0              3592.3562      46.154682      20.047001      20.857         19298.209      3853.0281      3722.4764      3201.564       1524.2095      3917.8118     -1043.7329    
  15192500   269.17145     -348.97683     -270.10079     -348.86988      0              5522.7808      46.330939      20.047001      20.857         19371.906      4920.4792      6970.2934      4677.5698     -228.96148      463.79685     -1468.4096    
  15193000   273.99863     -350.55532     -270.26475     -350.44254      0              5231.4405      46.321221      20.047001      20.857         19367.843      6408.0949      3986.6261      5299.6005      509.88213      69.269793      487.28001    
  15193500   260.81638     -349.98641     -273.55867     -349.88026      0              4578.8961      46.118411      20.047001      20.857         19283.044      5515.4792      3959.4146      4261.7945     -558.78626     -1294.9995      614.03516    
  15194000   267.17914     -350.34409     -272.05186     -350.2337       0              8145.9143      46.020914      20.047001      20.857         19242.278      7853.298       8305.3754      8279.0694      329.98369      190.79787      1452.522     
  15194500   270.89773     -350.73691     -271.355       -350.62795      0              5110.0589      46.273192      20.047001      20.857         19347.761      6859.1719      3959.0538      4511.9509      1415.5792      2097.3705      15.23619     
  15195000   271.33037     -350.72888     -271.2202      -350.59806      0              4935.6821      46.396053      20.047001      20.857         19399.132      4125.5976      3982.6222      6698.8264      207.51598      1956.8327     -192.65135    
  15195500   271.30824     -350.4068      -270.9046      -350.27525      0              4592.5421      46.164997      20.047001      20.857         19302.522      3921.2753      4912.9996      4943.3514     -1705.3769      1021.89        1829.6838    
  15196000   271.54582     -350.89016     -271.31834     -350.78882      0              4570.9935      45.607032      20.047001      20.857         19069.226      4361.3663      5047.5023      4304.1119     -144.28365     -505.64904     -786.89349    
  15196500   266.70038     -349.29816     -271.14621     -349.18407      0              4948.2084      45.80232       20.047001      20.857         19150.88       6581.428       3738.8679      4524.3292     -1149.0594      631.4354      -484.84759    
  15197000   265.5383      -349.83262     -272.0212      -349.70033      0              4666.6648      46.320551      20.047001      20.857         19367.563      4128.1012      7242.9829      2628.9102      1125.3723      1143.2494      1847.5198    
  15197500   264.79478     -349.68068     -272.08714     -349.58276      0              5331.6821      46.172788      20.047001      20.857         19305.78       4849.6356      5186.1198      5959.2909      190.3499      -309.35654      726.11802    
  15198000   269.74413     -350.79506     -271.7512      -350.66191      0              4521.9636      46.028417      20.047001      20.857         19245.416      6331.4293      4159.4019      3075.0595     -544.93419     -151.11846      404.4246     
  15198500   264.64747     -350.80442     -273.25404     -350.65928      0              5287.0575      46.057371      20.047001      20.857         19257.522      6364.9819      3879.8241      5616.3664     -457.05891     -1322.3332     -850.49238    
  15199000   275.0167      -351.78024     -271.19134     -351.64328      0              2544.945       46.293971      20.047001      20.857         19356.449      3400.9967      3441.9954      791.84293      336.09195      436.16424      776.12571    
  15199500   268.44145     -348.13207     -269.46993     -348.08895      0              4469.1578      46.513667      20.047001      20.857         19448.309      2437.4121      3936.6834      7033.3778     -931.56489      813.20243      988.73862    
  15200000   277.32102     -350.15949     -268.89535     -350.06871      0              6035.419       46.319875      20.047001      20.857         19367.28       8676.3155      6004.8103      3425.1312     -1171.4849      241.15802     -255.81892    
  15200500   270.3947      -350.8296      -271.5951      -350.70949      0              3901.0203      46.140653      20.047001      20.857         19292.344      4069.3948      2770.3572      4863.309      -802.95612      745.1714       48.034876    
  15201000   269.42953     -351.19481     -272.24313     -351.06963      0              4417.0506      46.275864      20.047001      20.857         19348.878      3779.5911      7800.7787      1670.782       214.421       -731.85596      786.37337    
  15201500   267.7318      -350.16984     -271.71565     -350.05347      0              5483.4139      46.109465      20.047001      20.857         19279.303      5118.9164      5355.9737      5975.3516      293.18954      287.56146     -1842.4897    
  15202000   271.4028      -350.48893     -270.95903     -350.32936      0              4570.8426      46.046852      20.047001      20.857         19253.124      6093.1741      7453.9692      165.38462     -593.03507      60.39826      -1344.3924    
  15202500   269.12211     -351.86362     -273.00203     -351.6783       0              3765.7759      46.141458      20.047001      20.857         19292.68       4887.5613      2510.4947      3899.2717     -1638.55       -828.5315       348.80775    
  15203000   264.12149     -350.2938      -272.89755     -350.12908      0              4230.4548      46.370786      20.047001      20.857         19388.567      4719.4397      4293.2753      3678.6493     -118.54246     -632.69919      914.16489    
  15203500   269.84673     -351.67787     -272.60394     -351.56591      0              5209.6268      46.393644      20.047001      20.857         19398.124      7711.5657      3661.1853      4256.1295     -922.43926     -25.514698      1297.1295    
  15204000   267.09584     -349.70107     -271.43324     -349.55686      0              4139.0158      46.191193      20.047001      20.857         19313.475      5663.8102      2613.7864      4139.4509     -1611.797      -197.68782     -252.12901    
  15204500   264.80219     -349.68272     -272.08701     -349.54826      0              5387.6582      46.192725      20.047001      20.857         19314.116      5784.903       5610.8564      4767.2152      901.24197      1795.0378     -1089.1325    
  15205000   267.66926     -349.56855     -271.13269     -349.44103      0              4792.3382      46.629749      20.047001      20.857         19496.845      2823.8131      6128.5904      5424.6112     -859.83866      727.12002      1109.5414    
  15205500   278.72191     -348.72256     -267.04791     -348.6179       0              4583.1133      46.500949      20.047001      20.857         19442.991      2597.033       7775.2687      3377.0382      420.37367     -43.205919     -218.26068    
  15206000   272.42279     -351.00573     -271.17693     -350.83979      0              3494.8315      46.068191      20.047001      20.857         19262.046      3671.5711      3134.7552      3678.1681     -20.442547      47.880211      1106.8634    
  15206500   269.15312     -347.63559     -268.76491     -347.45148      0              5356.4168      45.952637      20.047001      20.857         19213.731      5518.5388      4601.9656      5948.7459     -1841.4284     -367.31832      133.46115    
  15207000   269.32369     -349.22594     -270.30527     -349.08911      0              2803.8755      46.459559      20.047001      20.857         19425.685      3065.9575      2137.2704      3208.3987     -367.26869      164.65896     -54.242291    
  15207500   278.40372     -351.01455     -269.43315     -350.90381      0              3790.8719      46.483918      20.047001      20.857         19435.87       4467.1714      5636.6525      1268.7917     -1475.1536     -1152.8305      1657.26      
  15208000   275.36059     -350.22477     -269.5351      -350.09683      0              5026.4978      46.107135      20.047001      20.857         19278.329      4958.6872      4784.8806      5335.9255      581.64872     -1127.2679     -101.02389    
  15208500   266.62553     -347.36955     -269.23954     -347.2174       0              5852.7492      46.300647      20.047001      20.857         19359.24       7280.3761      5070.2738      5207.5977     -1224.2453      434.62009     -2142.2736    
  15209000   269.46591     -349.79559     -270.83325     -349.66049      0              3428.5536      46.741689      20.047001      20.857         19543.649      6009.6908      3594.6169      681.353        299.17849      1038.8414      1002.0237    
  15209500   273.33564     -350.83602     -270.73973     -350.7161       0              4664.7938      46.631807      20.047001      20.857         19497.705      4912.0183      4195.0676      4887.2954     -1462.5981      1179.6166      1261.5314    
  15210000   260.95999     -347.35101     -270.88119     -347.25694      0              4510.7243      46.19281       20.047001      20.857         19314.152      5599.3316      5435.9147      2496.9265      659.35667      585.48787      978.44849    
  15210500   263.4599      -349.82907     -272.62669     -349.69576      0              4616.3263      46.061718      20.047001      20.857         19259.339      5659.7743      4417.7996      3771.4051     -1661.6856     -416.61688     -584.93958    
  15211000   272.45185     -350.89564     -271.05833     -350.7849       0              5702.9624      46.175049      20.047001      20.857         19306.725      6281.2573      6647.8194      4179.8107     -189.33624      808.13608     -346.63128    
  15211500   263.89878     -349.18878     -271.8578      -349.06033      0              4459.0423      46.440348      20.047001      20.857         19417.652      5342.2927      4643.3302      3391.5039      592.73079      282.26816      1122.6228    
  15212000   259.05994     -349.16306     -273.25001     -349.04845      0              4305.9245      46.357419      20.047001      20.857         19382.978      971.62142      7942.527       4003.625      -1822.4188     -883.31784     -670.02683    
  15212500   268.58866     -351.75107     -273.0458      -351.60982      0              5067.0564      46.007188      20.047001      20.857         19236.539      5144.386       3410.889       6645.8942      1684.1825      867.38561     -291.56602    
  15213000   276.54239     -354.12139     -273.08541     -354.0173       0              3011.7277      46.105326      20.047001      20.857         19277.573      3165.1358      3501.5222      2368.5252     -775.10062     -1081.3904      2548.087     
  15213500   266.8397      -349.25814     -271.06537     -349.15446      0              4669.4476      46.36162       20.047001      20.857         19384.735      4966.4473      4517.8528      4524.0426      874.84        -645.62837     -1619.4383    
  15214000   273.34004     -351.59728     -271.4997      -351.50288      0              3494.2158      46.258451      20.047001      20.857         19341.597      3726.8343      2959.8521      3795.961       167.16071     -115.19728     -441.85812    
  15214500   271.14933     -349.51515     -270.05952     -349.38654      0              5647.4947      45.996073      20.047001      20.857         19231.892      6481.6182      4816.7243      5644.1415      469.25871     -69.001315     -1011.0809    
  15215000   271.53817     -349.34076     -269.77118     -349.21574      0              5466.3651      46.150705      20.047001      20.857         19296.547      3894.876       8011.4575      4492.7619     -1113.6281     -195.92594     -177.92111    
  15215500   271.32798     -350.21244     -270.70445     -350.07967      0              3501.9114      46.152906      20.047001      20.857         19297.467      2140.0381      4038.0709      4327.6253     -962.89113      126.34963      1419.8822    
  15216000   264.71361     -352.01382     -274.44407     -351.90008      0              4990.7341      46.250622      20.047001      20.857         19338.324      3282.334       8231.5327      3458.3356      106.96063     -399.52479      41.828093    
  15216500   266.34566     -348.45055     -270.40255     -348.29988      0              5227.559       46.271155      20.047001      20.857         19346.909      5571.3373      6749.6164      3361.7232     -770.89307     -1713.2732     -15.837054    
  15217000   262.15363     -350.62336     -273.80376     -350.49456      0              2520.7354      46.28332       20.047001      20.857         19351.996      1762.1611      2180.2635      3619.7815     -125.21155      1757.007      -661.60947    
  15217500   259.11479     -351.8773      -275.94818     -351.72006      0              3514.3802      46.220876      20.047001      20.857         19325.887      3075.1332      3965.1429      3502.8645      89.117252      1105.743       294.62823    
  15218000   269.75403     -352.72654     -273.67977     -352.55787      0              2365.4934      46.224811      20.047001      20.857         19327.532      4697.5884      2568.4666     -169.57462     -2293.6091      590.90963      1588.0111    
  15218500   272.33073     -351.82293     -272.02111     -351.64404      0              5460.9838      46.195208      20.047001      20.857         19315.154      4978.4956      6454.1266      4950.3292     -1914.163       2582.1057     -1382.6488    
  15219000   274.60872     -351.89424     -271.42489     -351.78798      0              4468.1659      46.256412      20.047001      20.857         19340.745      4820.5515      1880.5393      6703.4068     -526.19743     -704.69902      425.7936     
  15219500   273.14409     -351.10485     -271.06469     -350.96028      0              3629.2396      46.354538      20.047001      20.857         19381.773      2915.14        4404.6392      3567.9396     -1044.8198     -34.428389     -919.5864     
  15220000   269.26788     -350.25833     -271.35402     -350.13665      0              4929.9398      46.146286      20.047001      20.857         19294.699      4520.902       2677.9772      7590.9401     -297.86908     -325.8353      -360.89793    
  15220500   274.32929     -352.4654      -272.07793     -352.34257      0              5070.9116      45.953273      20.047001      20.857         19213.996      5185.2044      5748.4011      4279.1294      1308.6008     -846.30901     -1121.0953    
  15221000   268.51675     -351.02696     -272.34276     -350.92804      0              4815.7658      46.186635      20.047001      20.857         19311.57       3982.4462      3564.6252      6900.226      -1996.0484      262.15557      20.90454     
  15221500   273.09449     -349.86266     -269.83704     -349.78331      0              2646.6303      46.24732       20.047001      20.857         19336.943      6071.3248      1615.4923      253.0739       1348.7601      597.85555      970.95564    
  15222000   267.74541     -350.19146     -271.73328     -350.07655      0              4966.5161      46.215376      20.047001      20.857         19323.587      4631.9631      4942.4221      5325.1632     -701.45192     -1181.0347      396.25131    
  15222500   273.96527     -350.9231      -270.64231     -350.82719      0              4019.8676      46.383625      20.047001      20.857         19393.935      3142.7086      4133.348       4783.5463      1834.6321      186.72297     -519.68125    
  15223000   268.69114     -351.96947     -273.23417     -351.8751       0              5322.8466      46.388944      20.047001      20.857         19396.159      6377.3084      3507.7436      6083.4878      887.98954     -1631.0136      952.88764    
  15223500   271.07997     -350.42268     -270.98737     -350.28728      0              5100.8826      46.228523      20.047001      20.857         19329.084      7229.7892      2474.4789      5598.3798      459.36626      2916.6758      339.2957     
  15224000   271.26183     -350.13787     -270.64927     -350.05769      0              6845.427       46.252481      20.047001      20.857         19339.101      9712.9417      6067.7596      4755.5796      1210.1175     -235.63045      119.22526    
  15224500   270.98124     -349.91815     -270.51177     -349.82503      0              4053.0501      46.560815      20.047001      20.857         19468.022      5929.2544      2467.7606      3762.1353      114.90689     -2842.8732     -1020.496     
  15225000   273.80744     -347.40853     -267.17398     -347.33967      0              4417.5405      46.487176      20.047001      20.857         19437.232      6381.1021      2163.3186      4708.2007      1058.7408     -873.64257     -1421.5772    
  15225500   266.23525     -349.13614     -271.12049     -349.05717      0              3965.4986      46.328043      20.047001      20.857         19370.695      7189.6815     -163.08734      4869.9015      1226.8302      65.156689      585.97399    
  15226000   276.02324     -350.5109      -269.62705     -350.36828      0              5680.724       46.427504      20.047001      20.857         19412.282      8375.5167      3278.9568      5387.6984      1267.5769     -269.39503     -322.02241    
  15226500   263.53258     -350.95649     -273.73282     -350.84198      0              3593.2813      46.455906      20.047001      20.857         19424.158      3907.6232      3495.6543      3376.5662      1989.9503      21.128705      849.02794    
  15227000   269.13463     -350.34161     -271.47635     -350.22685      0              4388.1333      46.169331      20.047001      20.857         19304.334      3497.0098      4340.8613      5326.529       887.43477      0.10782799     891.91969    
  15227500   265.33677     -348.53428     -270.78192     -348.43259      0              4734.6754      45.854067      20.047001      20.857         19172.516      5277.1574      5314.6239      3612.245       0.29113937    -351.07006      1367.9221    
  15228000   274.13023     -353.61116     -273.28202     -353.47972      0              5295.2296      46.08809       20.047001      20.857         19270.366      5519.181       4974.3319      5392.176      -706.27663     -1843.9905      511.90952    
  15228500   271.15658     -351.59846     -272.1407      -351.47101      0              3803.4344      46.46618       20.047001      20.857         19428.453      2996.7297      4484.8815      3928.6921     -551.84202      655.05217      1664.629     
  15229000   268.00178     -349.82681     -271.29351     -349.70646      0              2305.9065      46.381801      20.047001      20.857         19393.173      1520.2341      2341.9465      3055.539       667.77399      1350.967       212.22096    
  15229500   262.20879     -346.90482     -270.06906     -346.76962      0              6047.725       46.011576      20.047001      20.857         19238.374      9123.5983      4950.5112      4069.0657     -1589.596      -730.90334     -434.68386    
  15230000   265.96737     -350.4841      -272.54694     -350.33973      0              3334.0076      46.039345      20.047001      20.857         19249.985      3509.2344      3336.1059      3156.6827     -197.7162      -25.600322      654.70682    
  15230500   274.43522     -351.33072     -270.91221     -351.20423      0              3876.7041      46.259809      20.047001      20.857         19342.165      4393.95        3514.3417      3721.8205     -649.2457       1646.5717     -383.79783    
  15231000   262.44509     -351.55735     -274.65234     -351.42484      0              2774.5334      46.302145      20.047001      20.857         19359.867      4771.5629      2087.531       1464.5064     -339.79572     -476.61525     -2282.6869    
  15231500   264.90388     -353.15356     -275.52805     -352.99273      0              5801.5124      46.069248      20.047001      20.857         19262.488      5428.5176      5998.8098      5977.21        360.14826     -274.31903     -1135.5406    
  15232000   268.47218     -351.44424     -272.7731      -351.30354      0              3833.6651      46.113618      20.047001      20.857         19281.04       7203.7548      2195.7207      2101.5196     -688.632        813.09512     -337.41312    
  15232500   270.68943     -348.78593     -269.46506     -348.6759       0              4875.5031      46.199032      20.047001      20.857         19316.753      4587.6064      3237.985       6800.9181     -833.59289      1687.7872      824.56454    
  15233000   274.9411      -349.29985     -268.73311     -349.15099      0              4158.5234      46.270336      20.047001      20.857         19346.567      4555.3111      3441.3872      4478.8718     -359.0239       448.02015      295.49457    
  15233500   269.49785     -350.52185     -271.55015     -350.37366      0              4503.3134      46.237491      20.047001      20.857         19332.834      3832.9491      5091.0906      4585.9004      706.45288      1148.753       40.45107     
  15234000   263.02067     -350.50022     -273.42655     -350.37419      0              4712.1315      46.500951      20.047001      20.857         19442.992      4419.7327      4820.6447      4896.0171      1413.5422      246.31146     -267.29246    
  15234500   277.9875      -351.28512     -269.82568     -351.14864      0              4128.8085      46.438225      20.047001      20.857         19416.764      3998.3521      4081.2119      4306.8616     -1035.8432      305.94482      412.99484    
  15235000   269.88573     -353.63242     -274.54706     -353.46332      0              5400.8919      46.128998      20.047001      20.857         19287.47       7509.9617      5228.8286      3463.8854     -132.41505     -821.26729      2461.5722    
  15235500   264.07019     -350.61832     -273.2371      -350.47946      0              2809.5676      46.163941      20.047001      20.857         19302.081      2224.0068      2211.8414      3992.8545      237.01495     -2369.9783      391.8739     
  15236000   272.75017     -351.07898     -271.15425     -350.88636      0              6107.8833      45.950438      20.047001      20.857         19212.811      7452.859       3340.2248      7530.566      -180.07087      1221.8958      856.38461    
  15236500   266.58298     -348.21607     -270.09853     -348.09001      0              6018.7518      45.728711      20.047001      20.857         19120.102      6226.6864      6302.9759      5526.5932      975.38175      38.307505      193.95781    
  15237000   268.12834     -348.97548     -270.4051      -348.83154      0              5254.3474      45.930041      20.047001      20.857         19204.282      4505.4279      4488.6059      6769.0083      97.928057     -1893.1042     -778.38644    
  15237500   275.89922     -348.20651     -267.359       -348.08154      0              3928.3372      46.216989      20.047001      20.857         19324.261      3889.1157      4099.1122      3796.7839      758.79087     -1373.5019      2253.741     
  15238000   272.66044     -349.83145     -269.93301     -349.70155      0              5816.8717      46.255566      20.047001      20.857         19340.391      6895.5928      5105.5075      5449.5148      1708.1947      669.96044     -1678.2204    
  15238500   266.55124     -349.41113     -271.30289     -349.31414      0              3567.8631      46.095106      20.047001      20.857         19273.3        3134.7706      4507.2388      3061.5799     -650.12569     -734.1904       441.7178     
  15239000   263.82846     -353.07081     -275.76043     -352.91903      0              4530.6463      46.010716      20.047001      20.857         19238.014      6474.0062      1338.0672      5779.8656      287.85966     -1320.8998      446.2514     
  15239500   267.28929     -350.38963     -272.06512     -350.26813      0              3598.4731      46.392678      20.047001      20.857         19397.72       1108.1074      4960.4347      4726.8772     -978.2095      -1126.0089     -354.52903    
  15240000   272.03958     -349.6625      -269.94599     -349.531        0              3199.7585      46.720349      20.047001      20.857         19534.726      2926.7129      4347.3927      2325.1698      220.07048     -1272.8212      933.33404    
  15240500   274.96479     -348.82715     -268.25346     -348.69715      0              4728.0349      46.152177      20.047001      20.857         19297.162      5183.8663      5047.3984      3952.8401     -1134.7719     -537.48405      1603.2415    
  15241000   271.90904     -350.74365     -271.0654      -350.59886      0              5327.7599      45.953833      20.047001      20.857         19214.23       6991.5886      3661.5537      5330.1373     -28.282538     -2170.563      -34.622877    
  15241500   268.98816     -352.23643     -273.41409     -352.09226      0              4151.7245      46.211149      20.047001      20.857         19321.82       6384.9712      2919.859       3150.3435      152.32323     -1070.1244     -51.775201    
  15242000   275.14856     -351.88764     -271.2601      -351.76163      0              2580.9027      46.369702      20.047001      20.857         19388.114     -447.5589       5810.1722      2380.0947      818.94073      789.35836     -393.86036    
  15242500   273.31015     -349.32889     -269.24007     -349.21413      0              6390.3613      46.237131      20.047001      20.857         19332.683      5371.6235      7203.6876      6595.7728      270.31988     -280.21897     -1155.5172    
  15243000   270.19939     -350.54526     -271.36799     -350.40785      0              4451.897       46.16942       20.047001      20.857         19304.372      5098.1091      3493.1711      4764.4107     -842.0176       1193.7283     -557.97355    
  15243500   273.76132     -351.24597     -271.02494     -351.09466      0              4824.8618      46.200112      20.047001      20.857         19317.205      2477.7528      5835.1153      6161.7174      2318.8004     -2222.6833      1682.015     
  15244000   271.33292     -350.00214     -270.4927      -349.88066      0              4838.8345      46.095797      20.047001      20.857         19273.588      4695.8054      4505.5545      5315.1435     -195.52114     -804.12871      1718.8806    
  15244500   278.79266     -351.60619     -269.91081     -351.47886      0              4988.0985      46.120892      20.047001      20.857         19284.081      5014.6216      4832.9564      5116.7175      1445.0373      1032.715      -658.72957    
  15245000   272.37238     -351.99479     -272.18077     -351.89625      0              4423.5257      46.294181      20.047001      20.857         19356.537      4793.4665      4893.5898      3583.5207     -1178.05       -2074.4301      117.27366    
  15245500   271.51829     -351.14539     -271.58164     -351.00853      0              6604.8822      46.110777      20.047001      20.857         19279.852      8482.5536      5194.2753      6137.8178     -406.49136     -2172.8792     -133.84329    
  15246000   269.56351     -351.35674     -272.36581     -351.21217      0              6081.7971      46.02099       20.047001      20.857         19242.31       5085.2855      6641.8023      6518.3034      1337.6889      196.49156     -1722.7899    
[...]
  18874500   274.03159     -349.02303     -268.7228      -348.9859       0              5983.7019      46.235432      20.047001      20.857         19331.973      6693.3493      5245.887       6011.8694      1322.712      -2270.2717      105.64271    
  18875000   270.20554     -348.60352     -269.42445     -348.5597       0              5199.9658      46.187443      20.047001      20.857         19311.908      3417.9703      6026.956       6154.9712      699.65582      1057.3182     -1874.9478    
  18875500   277.48795     -347.24974     -265.93668     -347.22788      0              4756.4055      45.853717      20.047001      20.857         19172.37       3897.7701      6721.3611      3650.0852     -1497.9318      454.99377     -1496.661     
  18876000   276.05964     -348.42036     -267.52584     -348.35504      0              6148.5753      45.736033      20.047001      20.857         19123.164      5906.7572      5174.025       7364.9438     -761.58326     -206.93884     -668.76567    
  18876500   273.64944     -347.52199     -267.33375     -347.47601      0              5127.5775      45.972854      20.047001      20.857         19222.184      4852.5805      6531.9793      3998.1727     -1230.2596     -565.03251      909.73363    
  18877000   265.61622     -350.13699     -272.30273     -350.11336      0              3337.5594      46.133152      20.047001      20.857         19289.207      3450.154       2870.6074      3691.9168     -543.36288     -422.67692      510.20417    
  18877500   266.44784     -348.04507     -269.96713     -347.97453      0              2893.8351      45.898153      20.047001      20.857         19190.949      3734.6646      2392.047       2554.7937      156.34234     -725.86236      958.31986    
  18878000   276.60148     -351.13189     -270.0786      -351.00503      0              5954.2565      45.731841      20.047001      20.857         19121.411      5891.5041      5966.0374      6005.2282     -369.69586     -256.55695     -223.89142    
  18878500   264.43048     -349.8168      -272.33001     -349.74727      0              4654.5506      46.016258      20.047001      20.857         19240.331      5620.1349      3516.3236      4827.1933      1329.6244     -298.75954      1786.1893    
  18879000   260.75028     -350.95714     -274.54876     -350.88008      0              4442.7548      45.940579      20.047001      20.857         19208.689      3421.6211      4945.2957      4961.3477     -150.21925      102.13081      1567.8428    
  18879500   267.1715      -349.3698      -271.07981     -349.23963      0              6211.4987      45.884413      20.047001      20.857         19185.204      6227.6966      7995.9489      4410.8506      468.45356      471.75677      671.32941    
  18880000   280.99301     -350.1294      -267.78925     -350.03677      0              5202.141       46.084567      20.047001      20.857         19268.893      5929.5877      4257.9631      5418.8722      348.86051     -258.95184      1462.4072    
  18880500   277.43282     -352.17078     -270.87388     -352.10008      0              2793.8066      46.14201       20.047001      20.857         19292.911      3326.0696      5167.4575     -112.10734     -711.33571     -1210.4152      243.36946    
  18881000   273.5364      -349.43047     -269.27535     -349.29334      0              4707.5196      46.165548      20.047001      20.857         19302.753      6522.5166      3524.1515      4075.8909      540.34906     -633.04912      1962.1967    
  18881500   281.42796     -349.65016     -267.18256     -349.5624       0              3178.2627      46.062827      20.047001      20.857         19259.803      6064.1539      2040.5467      1430.0875      260.38061      435.84597      183.1368     
  18882000   279.83898     -349.02634     -267.02435     -348.97216      0              4228.3111      46.260256      20.047001      20.857         19342.352      2442.8239      5105.565       5136.5445     -437.93924     -501.74812     -902.07541    
  18882500   272.05812     -347.45804     -267.7361      -347.39901      0              3784.2004      46.356139      20.047001      20.857         19382.443      4795.5051      1637.8761      4919.2201     -677.86921      230.64424     -536.17162    
  18883000   270.78769     -346.98526     -267.6356      -346.88619      0              4309.2443      46.343245      20.047001      20.857         19377.051      4782.7856      3184.0715      4960.8756     -286.76758      191.51833      761.08528    
  18883500   265.75988     -350.70475     -272.8284      -350.60174      0              5523.7862      46.055027      20.047001      20.857         19256.542      4016.5619      6466.9749      6087.8219      221.73709      269.54746      1721.466     
  18884000   270.4954      -350.14466     -270.88065     -350.04266      0              4400.6016      45.833519      20.047001      20.857         19163.925      5130.4888      4328.1428      3743.1732      501.53695      151.37915      991.94779    
  18884500   266.56559     -350.56131     -272.44886     -350.45162      0              6624.339       46.167108      20.047001      20.857         19303.405      8952.2181      5973.6923      4947.1067      552.00504     -208.07606     -233.84018    
  18885000   266.69029     -351.85202     -273.70303     -351.7795       0              4192.7222      46.566675      20.047001      20.857         19470.472      3420.2196      4797.8382      4360.1087     -972.9054      -813.98442      446.61621    
  18885500   273.77811     -350.04679     -269.82083     -349.95512      0              5888.5553      46.148149      20.047001      20.857         19295.478      7165.6749      4150.7868      6349.2043     -50.048234     -506.54277      1239.8297    
  18886000   268.18939     -348.05366     -269.46539     -347.94025      0              7582.6766      45.925605      20.047001      20.857         19202.428      6055.0458      8966.3093      7726.6746      381.57566      394.3616       584.458      
  18886500   272.10342     -347.48903     -267.75382     -347.40354      0              5206.4615      46.153024      20.047001      20.857         19297.516      4946.6669      4916.1488      5756.5688      333.34474      102.21337     -787.92721    
  18887000   271.68421     -351.66922     -272.05685     -351.55805      0              3602.8494      46.302774      20.047001      20.857         19360.13       5674.5627      3081.3492      2052.6364     -917.62279     -716.75685      556.32698    
  18887500   269.07209     -346.34262     -267.49569     -346.25982      0              5624.5677      46.08302       20.047001      20.857         19268.246      4692.8306      6918.7107      5262.1617      561.12258      3392.667      -355.85681    
  18888000   265.46476     -349.41704     -271.62718     -349.28861      0              3939.0494      45.937293      20.047001      20.857         19207.315      3998.6216      4606.1782      3212.3485     -2075.785      -1128.001       1117.9192    
  18888500   265.83127     -348.76912     -270.87186     -348.67942      0              5933.5551      45.991562      20.047001      20.857         19230.006      6843.8095      5868.0586      5088.7972      549.37021     -802.90057      302.66692    
  18889000   269.41063     -350.44177     -271.49564     -350.40279      0              6606.9522      46.203079      20.047001      20.857         19318.445      6742.863       6151.7681      6926.2254      851.78831     -1078.75        134.1608     
  18889500   267.35867     -349.69738     -271.35254     -349.67779      0              5550.749       46.322924      20.047001      20.857         19368.555      5096.3719      6028.8868      5526.9884      82.848512      1194.8221      50.737501    
  18890000   273.37196     -351.48016     -271.37322     -351.37         0              3671.8218      46.101799      20.047001      20.857         19276.098      3311.8625      4729.0693      2974.5337     -657.73218      1649.998       1459.6831    
  18890500   277.46658     -348.98166     -267.67486     -348.88497      0              5920.3651      46.044524      20.047001      20.857         19252.15       7560.1398      4283.3695      5917.5861      52.141799      625.93446     -1017.2828    
  18891000   270.14613     -350.8784      -271.71674     -350.78706      0              4589.9915      46.329256      20.047001      20.857         19371.202      4803.001       5521.0886      3445.8848      1163.4521      969.78511     -456.20953    
  18891500   269.52328     -349.1797      -270.20056     -349.12317      0              5612.5128      46.228447      20.047001      20.857         19329.052      5673.0115      5288.1738      5876.3532      1616.2621     -2179.5484     -1580.6872    
  18892000   270.03548     -350.74963     -271.62039     -350.6583       0              4148.9949      46.019255      20.047001      20.857         19241.585      5900.7676      1502.6798      5043.5373     -429.69532     -531.07895      504.72377    
  18892500   261.72279     -351.70849     -275.01514     -351.62576      0              4961.6204      46.096685      20.047001      20.857         19273.96       4406.8006      4035.2636      6442.797      -223.30312     -1213.8766      692.1954     
  18893000   262.53399     -349.16612     -272.23506     -349.12962      0              5320.5453      46.27577       20.047001      20.857         19348.839      4796.992       4808.4888      6356.155       202.60028     -333.36048      1188.7889    
  18893500   269.73841     -349.22016     -270.17797     -349.14592      0              5862.9874      46.176436      20.047001      20.857         19307.305      4103.2087      6798.3517      6687.4017      592.61924     -511.05389      608.18905    
  18894000   269.46759     -353.00588     -274.04305     -352.91628      0              5157.8046      46.111306      20.047001      20.857         19280.073      7673.1304      3724.6629      4075.6203      144.4918      -154.86541      1391.199     
  18894500   267.41973     -352.5773      -274.21456     -352.47048      0              3072.672       46.223599      20.047001      20.857         19327.025      3812.2892      4047.9278      1357.799       284.52353      417.49547     -1726.4446    
  18895000   275.66216     -354.30907     -273.53103     -354.2162       0              4180.5863      46.117582      20.047001      20.857         19282.697      2657.7692      4630.5179      5253.4717      558.88318     -229.52247     -556.8348     
  18895500   265.71562     -350.91905     -273.05567     -350.83988      0              5263.8703      45.916512      20.047001      20.857         19198.626      4616.629       5768.4333      5406.5485      903.6822      -1823.2008     -1599.225     
  18896000   270.04244     -352.26997     -273.13869     -352.13101      0              7819.6808      45.951136      20.047001      20.857         19213.103      10684.75       7580.0566      5194.236      -686.4773      -1557.4307      299.05548    
  18896500   271.85015     -350.54508     -270.88408     -350.43834      0              3162.4964      46.343582      20.047001      20.857         19377.192      3381.4839      4028.4513      2077.5541      107.3484       560.12585     -841.93039    
  18897000   268.10606     -351.93744     -273.37358     -351.85784      0              3878.7305      46.33862       20.047001      20.857         19375.118      4135.7865      2765.8796      4734.5254      723.36202      43.320266     -2603.8417    
  18897500   280.08531     -350.6808      -268.60663     -350.62716      0              7763.1955      45.790283      20.047001      20.857         19145.847      11431.258      4714.4278      7143.901       85.57893      -2.4291714      774.21118    
  18898000   270.0844      -351.25283     -272.10926     -351.16913      0              5182.0962      45.916483      20.047001      20.857         19198.613      6275.8788      4166.6492      5103.7607     -1015.9346      520.0594       345.42238    
  18898500   272.80247     -349.8425      -269.90244     -349.78115      0              3406.819       46.470141      20.047001      20.857         19430.109      3724.7158      2373.9806      4121.7606      291.85192      671.29996      1545.2577    
  18899000   274.20667     -349.78867     -269.43714     -349.71995      0              5300.6449      46.35751       20.047001      20.857         19383.016      6818.209       4490.7226      4593.0032     -692.64196      33.712263      1059.7768    
  18899500   274.23399     -348.78018     -268.42064     -348.70957      0              4082.6553      46.237659      20.047001      20.857         19332.904      6193.0803      1974.273       4080.6127     -903.07937      215.99962      229.09382    
  18900000   277.10281     -349.97887     -268.77867     -349.92252      0              4790.3507      46.073495      20.047001      20.857         19264.264      5972.3104      5233.8027      3164.9391     -40.335516      495.41104     -1092.18      
  18900500   280.75085     -349.08469     -266.8155      -349.02165      0              4991.5034      45.955911      20.047001      20.857         19215.099      6679.4833      5617.0578      2677.9691     -408.47609     -138.65952     -12.650034    
  18901000   271.28956     -347.96747     -268.47074     -347.90446      0              5039.8354      46.000175      20.047001      20.857         19233.607      4635.7964      5175.0463      5308.6636     -80.53351       659.63292      1665.4734    
  18901500   275.61957     -349.35741     -268.59185     -349.27024      0              2743.28        46.03538       20.047001      20.857         19248.327      5108.2869      2516.7188      604.83434     -1058.6651      1456.8537      341.28799    
  18902000   263.75598     -351.03045     -273.74131     -350.92852      0              2898.9386      46.183104      20.047001      20.857         19310.093      3584.4311      2546.9972      2565.3874      1807.1819      435.57658     -1454.1384    
  18902500   270.98698     -350.57244     -271.16438     -350.47797      0              4197.8754      46.247126      20.047001      20.857         19336.862      5178.8394      3388.1276      4026.6592      938.22658      290.98195     -670.29454    
  18903000   272.59042     -350.02111     -270.14319     -349.91236      0              817.04751      46.275557      20.047001      20.857         19348.75      -382.3719       1520.0431      1313.4713      47.440396      838.86612      280.01489    
  18903500   275.67088     -351.06664     -270.28605     -350.97309      0              3828.7483      46.094717      20.047001      20.857         19273.137      4404.8524      5014.2083      2067.1843     -313.97056      1151.6029      535.79911    
  18904000   264.02708     -350.20649     -272.83791     -350.15128      0              5288.0514      45.978085      20.047001      20.857         19224.371      6264.8412      4218.7115      5380.6015      455.72136     -1844.6113     -20.016903    
  18904500   269.01859     -350.9476      -272.11635     -350.85171      0              5291.3314      46.077811      20.047001      20.857         19266.068      6137.2094      4623.55        5113.2349      308.01559      1595.4062      1531.6847    
  18905000   270.19916     -351.26908     -272.09187     -351.21115      0              3285.4247      46.185568      20.047001      20.857         19311.124      2788.2459      3742.1985      3325.8297     -1475.1165      1159.5528      1014.6196    
  18905500   273.8217      -351.30171     -271.06298     -351.25213      0              3523.2811      46.211861      20.047001      20.857         19322.117      4862.7891      3040.3761      2666.6782     -919.35983     -652.42634     -1501.0037    
  18906000   266.31879     -349.86927     -271.82914     -349.80091      0              3638.1781      46.209228      20.047001      20.857         19321.016      5553.0223      1145.4468      4216.0651      1736.8616      1407.7442     -1501.9429    
  18906500   272.76615     -349.52582     -269.59641     -349.46088      0              2478.8548      46.35644       20.047001      20.857         19382.569      3052.7571      2188.2454      2195.5619      420.34062     -929.51357     -1719.4998    
  18907000   270.52411     -350.69524     -271.42282     -350.67097      0              1257.4824      46.455527      20.047001      20.857         19423.999      704.62601      1618.2221      1449.5992     -375.22803     -444.73559      646.28839    
  18907500   271.50583     -352.45255     -272.89245     -352.4016       0              7360.675       46.106472      20.047001      20.857         19278.052      6748.4002      8998.445       6335.1799     -6.9680138     -1198.7867      136.95774    
  18908000   262.81446     -347.43822     -270.42498     -347.43701      0              2700.0297      46.139658      20.047001      20.857         19291.927      4627.3831      2834.3663      638.33986      46.619293      2799.828       447.90194    
  18908500   265.82        -350.40295     -272.50898     -350.3374       0              4293.8203      46.426817      20.047001      20.857         19411.995      4177.7938      3019.0911      5684.5758      238.89399      1836.9432     -313.43104    
  18909000   262.42608     -351.81504     -274.9156      -351.7493       0              4276.7475      46.276998      20.047001      20.857         19349.352      3771.2917      4763.5991      4295.3517     -691.53035     -797.01135      1352.5746    
  18909500   268.21938     -351.47074     -272.87368     -351.4439       0              6438.9097      45.987331      20.047001      20.857         19228.237      6624.328       6074.7171      6617.6841      766.5027       1353.4382     -607.22428    
  18910000   272.73342     -349.37032     -269.4505      -349.3976       0              6019.6691      45.936353      20.047001      20.857         19206.922      5352.06        7710.5901      4996.3572      2476.5803     -1798.0939      586.97871    
WARNING: Wall time limit reached (../timer.cpp:193)
Loop time of 85803.4 on 4 procs for 3810000 steps with 2268 atoms

Performance: 1.918 ns/day, 12.511 hours/ns, 44.404 timesteps/s
968.0% CPU use with 4 MPI tasks x no OpenMP threads

MPI task timing breakdown:
Section |  min time  |  avg time  |  max time  |%varavg| %total
---------------------------------------------------------------
Pair    | 47967      | 48278      | 48579      | 120.8 | 56.27
Bond    | 0.46905    | 0.48746    | 0.52299    |   3.0 |  0.00
Neigh   | 1244.5     | 1267.5     | 1280.3     |  38.7 |  1.48
Comm    | 4740.4     | 4998       | 5289       | 316.9 |  5.82
Output  | 1417.9     | 1417.9     | 1417.9     |   0.1 |  1.65
Modify  | 29768      | 29830      | 29894      |  31.5 | 34.77
Other   |            | 10.99      |            |       |  0.01

Nlocal:            567 ave         589 max         551 min
Histogram: 1 1 0 0 0 1 0 0 0 1
Nghost:         3760.5 ave        3813 max        3697 min
Histogram: 1 0 1 0 0 0 0 0 0 2
Neighs:              0 ave           0 max           0 min
Histogram: 4 0 0 0 0 0 0 0 0 0
FullNghs:       143471 ave      151243 max      137246 min
Histogram: 1 0 1 0 0 1 0 0 0 1

Total # of neighbors = 573884
Ave neighs/atom = 253.03527
Ave special neighs/atom = 0
Neighbor list builds = 381000
Dangerous builds not checked

unfix		4
unfix		3
unfix		1

write_data	data.final.${pid}
write_data	data.final.0
System init for write_data ...
Generated 0 of 1 mixed pair_coeff terms from geometric mixing rule
write_restart	restart.lmp.${pid}
write_restart	restart.lmp.0
System init for write_restart ...
Generated 0 of 1 mixed pair_coeff terms from geometric mixing rule
Total wall time: 23:50:34
