LAMMPS (23 Jun 2022)
echo both

include		in.partitions
variable        pid world 0
include		in.temp
variable	temperature equal 270.0
variable        tempDamp equal 0.100 # this is 0.1 ps
include		in.pressure
variable        pressure equal 5066.25
variable        pressureDamp equal 1.0 #this is 1ps
include		in.seed
variable        seed world 745823

units           metal
atom_style	full
read_restart	restart.lmp.${pid}
read_restart	restart.lmp.0
Reading restart file ...
  restart file = 23 Jun 2022, LAMMPS = 23 Jun 2022
  restoring atom style full from restart
  orthogonal box = (0.76755216 0 0) to (46.683147 20.047001 20.857)
  4 by 1 by 1 MPI processor grid
Summary of lammps deepmd module ...
  >>> Info of deepmd-kit:
  installed to:       /u/sigbjobo/software/DEEPMD_FROM_SOURCE/deepmd-kit/install
  source:             v2.1.3
  source branch:       master
  source commit:      5a32c49
  source commit at:   2022-07-01 09:52:58 +0800
  surpport model ver.:1.1 
  build float prec:   double
  build with tf inc:  /u/sigbjobo/software/DEEPMD_FROM_SOURCE/tensorflow/install/include;/u/sigbjobo/software/DEEPMD_FROM_SOURCE/tensorflow/install/include
  build with tf lib:  /u/sigbjobo/software/DEEPMD_FROM_SOURCE/tensorflow/install/lib/libtensorflow_cc.so;/u/sigbjobo/software/DEEPMD_FROM_SOURCE/tensorflow/install/lib/libtensorflow_framework.so
  set tf intra_op_parallelism_threads: 0
  set tf inter_op_parallelism_threads: 0
  >>> Info of lammps module:
  use deepmd-kit at:  /u/sigbjobo/software/DEEPMD_FROM_SOURCE/deepmd-kit/install
  source:             v2.1.3
  source branch:      master
  source commit:      5a32c49
  source commit at:   2022-07-01 09:52:58 +0800
  build float prec:   double
  build with tf inc:  /u/sigbjobo/software/DEEPMD_FROM_SOURCE/tensorflow/install/include;/u/sigbjobo/software/DEEPMD_FROM_SOURCE/tensorflow/install/include
  build with tf lib:  /u/sigbjobo/software/DEEPMD_FROM_SOURCE/tensorflow/install/lib/libtensorflow_cc.so;/u/sigbjobo/software/DEEPMD_FROM_SOURCE/tensorflow/install/lib/libtensorflow_framework.so
  restoring pair style deepmd from restart
  2268 atoms
Finding 1-2 1-3 1-4 neighbors ...
  special bond factors lj:    0        0        0       
  special bond factors coul:  0        0        0       
     0 = max # of 1-2 neighbors
     0 = max # of 1-3 neighbors
     0 = max # of 1-4 neighbors
     1 = max # of special neighbors
  special bonds CPU = 0.000 seconds
  read_restart CPU = 0.010 seconds
include 	in.setup
variable	out_freq equal 500
variable	out_freq2 equal 1000
variable	out_freq3 equal 5000

timestep        0.0005

neigh_modify    delay 7 every 1

include         in.deepmd
# This is deepMD model

# create groups ###
#group ox type 2
#group hy type 1

mass 2 15.999
mass 1 1.008

pair_style      deepmd ../graph.pb
pair_coeff      * *

bond_style      none
angle_style     none
dihedral_style  none
improper_style  none
neigh_modify exclude none


neighbor        2.0 bin
neigh_modify    every 10 delay 0 check no

thermo          ${out_freq}
thermo          500
thermo_style 	custom step temp pe etotal epair emol press lx ly lz vol pxx pyy pzz pxy pxz pyz
#thermo_modify	flush yes
restart 	${out_freq} restart.lmp.${pid} restart2.lmp.${pid}
restart 	500 restart.lmp.${pid} restart2.lmp.${pid}
restart 	500 restart.lmp.0 restart2.lmp.${pid}
restart 	500 restart.lmp.0 restart2.lmp.0

include		in.dump
dump            myDump all atom ${out_freq3} dump.water.${pid}
dump            myDump all atom 5000 dump.water.${pid}
dump            myDump all atom 5000 dump.water.0
dump            myDump2 all dcd ${out_freq2} dump.dcd.${pid}
dump            myDump2 all dcd 1000 dump.dcd.${pid}
dump            myDump2 all dcd 1000 dump.dcd.0
dump_modify     myDump append yes
dump_modify     myDump2 append yes


timer           timeout 23:50:00 every 1000
New timer settings: style=normal  mode=nosync  timeout=23:50:00

fix             1 all plumed plumedfile plumed.dat outfile plumed.out
fix             3 all nph x ${pressure} ${pressure} ${pressureDamp}
fix             3 all nph x 5066.25 ${pressure} ${pressureDamp}
fix             3 all nph x 5066.25 5066.25 ${pressureDamp}
fix             3 all nph x 5066.25 5066.25 1
Resetting global fix info from restart file:
  fix style: nph, fix ID: 3
fix             4 all temp/csvr ${temperature} ${temperature} ${tempDamp} ${seed}
fix             4 all temp/csvr 270 ${temperature} ${tempDamp} ${seed}
fix             4 all temp/csvr 270 270 ${tempDamp} ${seed}
fix             4 all temp/csvr 270 270 0.1 ${seed}
fix             4 all temp/csvr 270 270 0.1 745823
Resetting global fix info from restart file:
  fix style: temp/csvr, fix ID: 4

run             40000000 upto

CITE-CITE-CITE-CITE-CITE-CITE-CITE-CITE-CITE-CITE-CITE-CITE-CITE

Your simulation uses code contributions which should be cited:

- USER-DEEPMD package:

@article{Wang_ComputPhysCommun_2018_v228_p178,
  author = {Wang, Han and Zhang, Linfeng and Han, Jiequn and E, Weinan},
  doi = {10.1016/j.cpc.2018.03.016},
  url = {https://doi.org/10.1016/j.cpc.2018.03.016},
  year = 2018,
  month = {jul},
  publisher = {Elsevier {BV}},
  volume = 228,
  journal = {Comput. Phys. Commun.},
  title = {{DeePMD-kit: A deep learning package for many-body potential energy representation and molecular dynamics}},
  pages = {178--184}
}

CITE-CITE-CITE-CITE-CITE-CITE-CITE-CITE-CITE-CITE-CITE-CITE-CITE

Generated 0 of 1 mixed pair_coeff terms from geometric mixing rule
All restart file global fix info was re-assigned
Neighbor list info ...
  update every 10 steps, delay 0 steps, check no
  max neighbors/atom: 2000, page size: 100000
  master list distance cutoff = 8
  ghost atom cutoff = 8
  binsize = 4, bins = 12 6 6
  1 neighbor lists, perpetual/occasional/extra = 1 0 0
  (1) pair deepmd, perpetual
      attributes: full, newton on
      pair build: full/bin
      stencil: full/bin/3d
      bin: standard
Per MPI rank memory allocation (min/avg/max) = 6.188 | 6.189 | 6.19 Mbytes
   Step          Temp          PotEng         TotEng         E_pair         E_mol          Press            Lx             Ly             Lz           Volume          Pxx            Pyy            Pzz            Pxy            Pxz            Pyz      
  24644000   270.14258     -350.48033     -271.3197      -350.48033      0              2873.9051      45.915595      20.047001      20.857         19198.242      2178.2444      4599.0836      1844.3875     -1041.0205     -290.08648      137.85201    
  24644500   272.02329     -349.38823     -269.6765      -349.22627      0              4469.4914      46.072424      20.047001      20.857         19263.816      5040.0016      3873.8206      4494.6522      218.00387     -691.85551      788.63859    
  24645000   274.01572     -347.77439     -267.47881     -347.60226      0              4373.3992      46.03517       20.047001      20.857         19248.239      3970.7932      5111.008       4038.3963      2136.2036      223.47226     -716.60605    
  24645500   274.9028      -350.56088     -270.00536     -350.37671      0              5478.6378      46.038589      20.047001      20.857         19249.669      6444.2839      6001.7264      3989.9032     -903.57249      15.512127     -271.97258    
  24646000   264.5065      -351.11313     -273.60407     -350.95011      0              5749.4273      46.075294      20.047001      20.857         19265.016      5945.1497      6640.5634      4662.5688     -454.39342     -582.97555      329.18723    
  24646500   265.33        -351.76141     -274.01103     -351.58622      0              5357.4132      46.036795      20.047001      20.857         19248.919      6167.6466      5386.5109      4518.0823     -991.51935      478.95768      760.66855    
  24647000   265.97148     -347.83812     -269.89976     -347.66386      0              4083.4822      46.100004      20.047001      20.857         19275.348      4670.9718      3732.9508      3846.5239      99.048892     -45.85903      -31.489433    
  24647500   281.194       -351.47948     -269.08043     -351.30887      0              5131.2242      46.302231      20.047001      20.857         19359.903      7656.2888      4512.4316      3224.9523     -111.97624      406.51741      669.84104    
  24648000   269.63937     -351.71897     -272.7058      -351.54743      0              3982.4355      46.305584      20.047001      20.857         19361.305      4039.0044      2934.185       4974.1173     -539.05273      751.69376     -625.27763    
  24648500   268.36805     -349.4667      -270.82607     -349.31239      0              4671.7168      46.214093      20.047001      20.857         19323.05       5768.6194      5869.9035      2376.6276     -462.66707     -1149.2902      1216.4632    
  24649000   269.58764     -350.38153     -271.38352     -350.19743      0              6200.2842      46.110061      20.047001      20.857         19279.553      9826.0686      5298.6773      3476.1068      1215.1812     -1063.4515      1461.7274    
  24649500   266.51797     -351.4205      -273.32201     -351.25239      0              6372.2152      46.04769       20.047001      20.857         19253.474      6044.9859      6649.9355      6421.7242     -942.58803     -1167.2608     -58.385329    
  24650000   268.15334     -350.25121     -271.6735      -350.11686      0              3586.8973      46.033274      20.047001      20.857         19247.446      4730.929       1430.3875      4599.3755      161.54767     -1199.4661      462.7804     
  24650500   269.65529     -348.8302      -269.81237     -348.68079      0              4740.112       46.085138      20.047001      20.857         19269.132      6144.2795      3389.28        4686.7765     -128.07894      1406.0746      2287.7293    
  24651000   276.28242     -350.93969     -269.97989     -350.77266      0              4417.0514      46.340235      20.047001      20.857         19375.793      5826.7275      3400.0091      4024.4175      12.885955      359.68286     -787.38077    
  24651500   271.66583     -350.32625     -270.71927     -350.15506      0              2670.0659      46.630045      20.047001      20.857         19496.968      2507.9172      3259.1711      2243.1093      757.84974      353.43137      246.3663     
  24652000   268.63727     -349.09846     -270.37894     -348.94441      0              4534.0459      46.407576      20.047001      20.857         19403.95       3296.9385      6174.8817      4130.3176     -408.83624     -1111.4429     -1837.7882    
  24652500   269.61033     -348.04833     -269.04368     -347.8746       0              4500.4701      46.101786      20.047001      20.857         19276.092      5064.7963      5466.8029      2969.811       814.59098      803.94176      803.7439     
  24653000   282.83337     -347.51397     -264.63453     -347.36551      0              7193.0509      46.145368      20.047001      20.857         19294.315      9021.6564      5203.3542      7354.1419      697.44477     -1430.0768     -1816.2887    
  24653500   264.67827     -347.13717     -269.57777     -346.99768      0              4967.3559      46.620311      20.047001      20.857         19492.899      6376.7074      2369.7325      6155.6278      993.64948      581.36663      683.98946    
  24654000   271.59325     -348.67641     -269.09069     -348.53426      0              4527.8022      46.346487      20.047001      20.857         19378.407      4005.7829      6759.4873      2818.1364      1077.8998      1455.4234      774.18435    
  24654500   266.70847     -349.87472     -271.72041     -349.69862      0              5767.6574      45.910336      20.047001      20.857         19196.043      7551.2046      2351.4537      7400.3138     -101.17721      1230.9536     -708.65307    
  24655000   270.94891     -350.99172     -271.59481     -350.82284      0              3928.9161      46.104773      20.047001      20.857         19277.341      4861.1194      2543.3821      4382.2467     -495.87983      125.14837     -926.07222    
  24655500   269.69897     -347.21942     -268.18879     -347.05371      0              4409.5486      46.313337      20.047001      20.857         19364.546      4685.6915      3513.8909      5029.0635      550.9558       1552.157      -28.778427    
  24656000   276.06061     -347.53482     -266.64002     -347.36945      0              4662.2197      46.29165       20.047001      20.857         19355.479      3559.1599      4211.9566      6215.5426     -37.379386      1266.6804      1144.6501    
  24656500   270.64741     -349.89918     -270.59063     -349.72998      0              5114.6189      45.946821      20.047001      20.857         19211.299      7324.7742      4103.2597      3915.8227      191.14742      582.41162     -582.40036    
  24657000   269.0107      -351.23203     -272.40308     -351.04732      0              6487.1187      45.985352      20.047001      20.857         19227.409      5623.909       6245.5282      7591.9188      607.97429     -1113.7101     -1255.318     
  24657500   266.96736     -352.92349     -274.69331     -352.78374      0              4081.7804      46.237283      20.047001      20.857         19332.747      5277.0302      4186.1606      2782.1504      996.05373     -1472.8229      745.08116    
  24658000   272.06224     -349.00021     -269.27707     -348.83204      0              3817.8426      46.066064      20.047001      20.857         19261.156      2558.815       3703.4344      5191.2784     -919.17525      813.7154       529.07489    
  24658500   284.1823      -350.55754     -267.28282     -350.39872      0              5062.6045      45.957693      20.047001      20.857         19215.845      6280.2113      5087.9692      3819.6329      335.68332      356.96262      1087.786     
  24659000   269.96698     -349.87606     -270.7669      -349.73768      0              4441.5684      46.301984      20.047001      20.857         19359.8        5235.6481      5196.983       2892.0741      454.36054      564.82703      736.47351    
  24659500   268.61817     -349.89899     -271.18506     -349.73294      0              5606.3287      46.367135      20.047001      20.857         19387.04       7710.4491      4220.2193      4888.3177     -366.52198     -403.30468     -1167.7097    
  24660000   280.60263     -351.30427     -269.07851     -351.13657      0              5125.0594      46.245828      20.047001      20.857         19336.319      7403.0759      3875.3312      4096.7712     -1498.5974      1947.6769     -1166.9685    
  24660500   275.06625     -350.24869     -269.64527     -350.07002      0              5292.0087      46.278447      20.047001      20.857         19349.958      5365.9773      5274.6664      5235.3825      731.68382      325.18261     -1020.8444    
  24661000   270.11806     -347.95579     -268.80235     -347.78787      0              6351.5114      46.065666      20.047001      20.857         19260.99       9423.8944      5337.0002      4293.6397     -1096.4723     -759.70902     -2.9850457    
  24661500   271.24985     -345.36287     -265.87779     -345.23247      0              4688.4493      46.017467      20.047001      20.857         19240.837      5432.221       1935.676       6697.4508      734.51124     -420.76673      384.70417    
  24662000   272.68394     -349.27328     -269.36795     -349.09929      0              3619.8975      46.221115      20.047001      20.857         19325.987      2945.2568      5421.2598      2493.176      -368.78391      818.72456     -832.28739    
  24662500   274.72028     -348.6098      -268.10776     -348.44108      0              3409.3825      46.270735      20.047001      20.857         19346.734      4826.9051      3249.164       2152.0785      931.55855      2453.5171      842.15349    
  24663000   274.66515     -350.15286     -269.66698     -349.98389      0              6112.779       45.974578      20.047001      20.857         19222.904      6960.3222      4586.4016      6791.6131     -372.16336      870.18403     -1313.2868    
  24663500   276.92581     -351.42536     -270.27703     -351.24272      0              6410.0328      46.034444      20.047001      20.857         19247.936      5381.7524      8114.6833      5733.6626      312.57818      311.70895     -371.58866    
  24664000   272.69508     -350.54705     -270.63846     -350.3813       0              3108.2684      46.355967      20.047001      20.857         19382.371      3660.3701      2563.3945      3101.0406      337.81755      513.76848      670.16383    
  24664500   267.24082     -349.38542     -271.07511     -349.20132      0              2981.9936      46.080229      20.047001      20.857         19267.079      3203.6076      2579.6219      3162.7512     -662.16661      1171.8624     -1806.8488    
  24665000   277.22598     -352.16908     -270.93279     -352.01706      0              4525.6029      45.827712      20.047001      20.857         19161.497      2493.6158      5896.5237      5186.6693      542.14053     -73.555144     -503.35643    
  24665500   275.88181     -348.60363     -267.76123     -348.42655      0              4855.7505      46.157997      20.047001      20.857         19299.595      7362.2259      3930.8469      3274.1787      614.64375      170.42449     -2084.5295    
  24666000   275.7464      -348.4473      -267.64458     -348.28063      0              2771.5134      46.612142      20.047001      20.857         19489.483      4250.1225      2828.6093      1235.8084     -1497.2841      1154.9155      259.04575    
  24666500   275.49335     -348.64207     -267.9135      -348.47148      0              3644.8102      46.387051      20.047001      20.857         19395.367      4347.1321      4032.9242      2554.3745      1071.6795     -1000.6487     -1336.9794    
  24667000   275.9708      -348.38751     -267.51902     -348.20517      0              4534.1439      45.954216      20.047001      20.857         19214.391      6549.0222      2520.4438      4532.9659     -73.888381      1034.7778     -695.54555    
  24667500   276.46921     -349.45636     -268.44183     -349.28808      0              6462.5077      45.879885      20.047001      20.857         19183.311      8328.8594      3584.2243      7474.4395     -893.88691      257.2934      -973.39181    
  24668000   269.15144     -349.11556     -270.24537     -348.93675      0              3550.8267      46.224351      20.047001      20.857         19327.34       3929.3792      3920.2402      2802.8608     -322.25073     -1883.0358     -2510.9616    
  24668500   269.20352     -349.47122     -270.58577     -349.32414      0              4079.4316      46.398327      20.047001      20.857         19400.082      2972.7055      6512.3969      2753.1925     -202.48857      313.07987      1623.1407    
  24669000   272.31343     -349.19162     -269.39487     -349.00889      0              4284.1052      46.175021      20.047001      20.857         19306.714      5042.9988      4738.0062      3071.3106      875.05204      1199.7915     -617.04597    
  24669500   268.08877     -349.03567     -270.47688     -348.85638      0              5348.3285      45.901561      20.047001      20.857         19192.374      6460.9807      4486.0369      5097.9681      702.21018      888.49615     -556.98772    
  24670000   265.47182     -350.13738     -272.34545     -349.97937      0              3836.9337      45.884027      20.047001      20.857         19185.043      7004.6069      2316.9679      2189.2264      1191.9368     -1892.9127     -537.32357    
  24670500   261.7241      -348.14467     -271.45094     -348.00331      0              6157.3692      45.946847      20.047001      20.857         19211.309      5917.8928      5768.4346      6785.7803     -880.34686     -665.75573     -174.96707    
  24671000   267.00671     -351.75199     -273.51028     -351.57438      0              1801.2034      46.340258      20.047001      20.857         19375.802      1392.4071      1375.9336      2635.2697      228.81696      1200.1795     -191.12222    
  24671500   270.7703      -350.655       -271.31043     -350.48429      0              2998.157       46.072205      20.047001      20.857         19263.724      4612.6703      840.85092      3540.9497     -1104.6814     -407.5324      -696.41667    
  24672000   272.09948     -348.62379     -268.88973     -348.44003      0              7252.9671      45.782382      20.047001      20.857         19142.543      8079.3222      6906.0095      6773.5695      703.89692      465.07588      1358.5561    
  24672500   269.26156     -349.35005     -270.4476      -349.19122      0              3975.027       46.186816      20.047001      20.857         19311.645      4743.6063      1395.1456      5786.329      -710.75028      1072.3805     -952.1688     
  24673000   269.32434     -350.54004     -271.61919     -350.37202      0              3634.9563      46.42241       20.047001      20.857         19410.152      3440.6982      4175.9339      3288.2367     -1384.7012     -537.84842     -433.9683     
  24673500   269.71605     -347.90521     -268.86957     -347.74652      0              7516.0336      46.148916      20.047001      20.857         19295.799      6173.9154      8710.566       7663.6193      495.44441      869.2752       1102.7705    
  24674000   271.33402     -350.53436     -271.0246      -350.3526       0              6038.0845      45.828484      20.047001      20.857         19161.819      5853.4993      5703.602       6557.1523      8.7550327      104.05458     -304.8048     
  24674500   269.88836     -353.07412     -273.988       -352.89048      0              5068.8556      46.10906       20.047001      20.857         19279.134      6033.8308      4015.9595      5156.7766     -341.40405     -653.05872     -554.63289    
  24675000   270.19087     -350.54472     -271.36994     -350.36496      0              3400.85        46.464803      20.047001      20.857         19427.877      3973.431       2702.3869      3526.7322      141.58489     -0.20293184    -158.75593    
  24675500   273.16627     -350.08005     -270.03339     -349.90556      0              4078.9118      46.317569      20.047001      20.857         19366.316      2132.4309      5726.2192      4378.0854     -66.426897     -267.12233      213.40721    
  24676000   266.73092     -347.37019     -269.2093      -347.1857       0              1705.5931      46.071262      20.047001      20.857         19263.33       2699.5726      3099.5378     -682.33122     -476.18033      66.40126       353.39751    
  24676500   264.78301     -348.94955     -271.35946     -348.76959      0              6833.4866      46.123728      20.047001      20.857         19285.267      8681.7505      5789.5841      6029.1253     -113.3374      -582.87565      1411.9705    
  24677000   265.40838     -347.45724     -269.68389     -347.28487      0              5120.4074      46.162418      20.047001      20.857         19301.444      4481.0762      4731.5066      6148.6393     -484.95151     -687.81555      1272.4953    
  24677500   267.2584      -350.0219      -271.70643     -349.84738      0              6315.3633      46.143513      20.047001      20.857         19293.54       7922.9616      5469.1405      5553.9879     -399.11108     -732.0951       770.43809    
  24678000   278.50395     -351.58732     -269.97654     -351.40678      0              4879.9462      46.184607      20.047001      20.857         19310.722      5280.8896      3975.6927      5383.2561      674.28126      501.27165      321.77815    
  24678500   265.74497     -349.54783     -271.67585     -349.3922       0              3150.3332      46.188761      20.047001      20.857         19312.459      4741.6377      2969.7487      1739.6132     -878.0729      -980.05669      607.58355    
  24679000   260.86928     -351.49497     -275.05173     -351.32034      0              5262.7656      45.999577      20.047001      20.857         19233.357      6716.4878      4778.4286      4293.3806      969.80719     -263.43836      1289.4678    
  24679500   267.46423     -349.4332      -271.05742     -349.2556       0              5020.1238      45.843396      20.047001      20.857         19168.054      7172.4345      3500.8163      4387.1205     -86.398142      290.81127      2229.4628    
  24680000   273.18234     -351.10971     -271.05834     -350.94535      0              3697.5162      46.163822      20.047001      20.857         19302.031      5077.842       2677.2573      3337.4493      1723.5671      1705.6613      938.18198    
  24680500   270.0997      -350.83629     -271.68823     -350.66557      0              4557.8767      46.201784      20.047001      20.857         19317.904      2393.0587      2651.1749      8629.3967     -92.051431      678.88129      469.8394     
  24681000   275.47361     -349.51484     -268.79205     -349.34528      0              5020.7205      46.287711      20.047001      20.857         19353.832      8510.6539      4166.4235      2385.084      -335.41094      214.59771      328.40017    
  24681500   278.6767      -348.11927     -266.45787     -347.9568       0              2160.9475      46.282127      20.047001      20.857         19351.497      3282.6934      1783.193       1416.956       2054.6814      1404.9741      296.77468    
  24682000   272.09844     -349.66364     -269.92989     -349.48455      0              4573.3185      46.207252      20.047001      20.857         19320.19       5801.9262      2440.5196      5477.5099      258.847       -2000.0402      77.195191    
  24682500   270.57149     -351.02474     -271.73844     -350.86726      0              4102.991       46.284235      20.047001      20.857         19352.378      2713.8746      3672.0918      5923.0067     -230.2813       627.35992     -1785.8165    
  24683000   272.00736     -348.90448     -269.19742     -348.73943      0              3194.6281      45.722206      20.047001      20.857         19117.382      6643.4403      3141.9969     -201.55312      1398.8544      826.42088     -556.79282    
  24683500   270.53604     -348.47049     -269.19457     -348.2876       0              6976.5948      45.91019       20.047001      20.857         19195.982      8390.6815      6150.2415      6388.8614     -528.22469     -419.42121      1826.3963    
  24684000   270.09626     -349.83516     -270.68811     -349.65439      0              1674.3791      46.376036      20.047001      20.857         19390.762      1328.0715      2968.3567      726.70926     -492.08448      1363.5536      1000.0942    
  24684500   264.26445     -350.50095     -273.06281     -350.33202      0              3128.8282      46.286852      20.047001      20.857         19353.472      2400.625       5504.328       1481.5317      311.93454      755.00061     -1034.4898    
  24685000   274.82517     -347.83282     -267.30005     -347.66249      0              4408.886       46.070819      20.047001      20.857         19263.144      5079.1975      4082.4107      4065.0499     -1068.4065     -3119.9087     -1294.5191    
  24685500   269.55486     -347.10599     -268.11759     -346.94964      0              1858.3026      45.927854      20.047001      20.857         19203.368      2071.7474      1860.4891      1642.6714      1885.3272      721.45466      322.42641    
  24686000   270.72703     -350.88099     -271.5491      -350.72715      0              5095.7922      45.975462      20.047001      20.857         19223.274      4159.8226      4704.3698      6423.1842      375.04541     -2933.9039      437.8773     
  24686500   263.93155     -349.14881     -271.80822     -348.96679      0              4449.2932      46.261609      20.047001      20.857         19342.918      7098.6693      4311.7326      1937.4776     -933.25269      1095.0327      1790.0981    
  24687000   270.94174     -347.67675     -268.28195     -347.51272      0              4137.0752      46.222897      20.047001      20.857         19326.732      3936.0519      3605.0971      4870.0765      1841.1572     -1244.0138      918.04918    
  24687500   267.46554     -348.58163     -270.20546     -348.40183      0              5977.289       46.098651      20.047001      20.857         19274.782      7136.6175      5138.6746      5656.5749     -1130.895      -957.63722     -1728.8713    
  24688000   278.09605     -349.72188     -268.23063     -349.55837      0              4295.6474      46.206182      20.047001      20.857         19319.743      5216.0905      3848.9004      3821.9512     -515.39817      53.338914     -597.832      
  24688500   271.61047     -346.61531     -267.02455     -346.4734       0              5186.9432      46.371528      20.047001      20.857         19388.877      5820.9281      5309.5913      4430.3101     -493.73802      2192.1324      1186.6833    
  24689000   262.45161     -349.86989     -272.96298     -349.7203       0              4505.0364      46.466808      20.047001      20.857         19428.716      5466.5312      5749.6417      2298.9364      803.39701     -1587.0232      668.85402    
  24689500   265.21944     -351.35061     -273.63263     -351.18171      0              3904.2877      46.304227      20.047001      20.857         19360.737      4993.8458      1229.8578      5489.1593      473.72127     -1555.1522      1550.1316    
  24690000   272.33889     -351.17145     -271.36724     -350.98683      0              7017.5913      46.173733      20.047001      20.857         19306.175      7251.2849      5483.6097      8317.8794      451.65978     -2165.0327      849.72621    
  24690500   273.71393     -352.97288     -272.76573     -352.8027       0              3557.8183      46.315478      20.047001      20.857         19365.441      3303.8775      3934.6073      3434.97       -0.77689266    -1142.526      -1657.3247    
  24691000   279.85384     -351.45664     -269.4503      -351.3228       0              2465.807       46.507323      20.047001      20.857         19445.656      3353.913       2443.1478      1600.3604     -66.388632      413.3611      -624.97678    
  24691500   280.54903     -349.35308     -267.14302     -349.19559      0              4639.193       46.494072      20.047001      20.857         19440.115      6587.551       5767.5931      1562.4349      1173.9446      1125.0738     -741.87695    
  24692000   280.04277     -351.54605     -269.48435     -351.37356      0              3918.1469      46.339026      20.047001      20.857         19375.287      4070.5705      2200.381       5483.4891      311.0721      -564.58431      61.267695    
  24692500   273.91482     -350.14318     -269.87716     -349.99043      0              2073.5337      46.436884      20.047001      20.857         19416.204      4297.8601      113.2433       1809.4978      346.92615     -61.322741      1015.1065    
  24693000   270.05411     -349.47002     -270.33532     -349.31915      0              3734.2862      46.661497      20.047001      20.857         19510.119      3558.7521      4200.9192      3443.1873      1716.7133      1851.5355     -1041.3599    
  24693500   262.67944     -350.3615      -273.38782     -350.19355      0              6106.9123      46.413019      20.047001      20.857         19406.225      6623.2946      6104.4982      5592.9441     -549.76869     -398.12197      304.47111    
  24694000   264.53706     -351.22754     -273.70952     -351.08223      0              6794.19        46.008953      20.047001      20.857         19237.277      8971.1259      5165.3655      6246.0786      557.64411      1844.2917      251.60185    
  24694500   269.82725     -348.48846     -269.42024     -348.33123      0              3834.1691      46.112846      20.047001      20.857         19280.717      4656.5228      3679.9248      3166.0596      375.59472      65.299432     -545.46399    
  24695000   266.94141     -350.35236     -272.12979     -350.2232       0              5616.6665      46.569187      20.047001      20.857         19471.523      5308.276       6465.838       5075.8855      541.45929     -133.42918     -738.10543    
  24695500   267.74595     -351.0806      -272.62227     -350.92862      0              4887.6661      46.81674       20.047001      20.857         19575.03       4760.8476      4979.4409      4922.71        276.61725      1280.4843     -807.92563    
  24696000   265.7384      -352.95676     -275.08671     -352.80031      0              2481.1786      46.301755      20.047001      20.857         19359.704      3142.5477      2564.8806      1736.1075     -365.85826      586.18291     -253.59603    
  24696500   253.33491     -353.2132      -278.97778     -353.04167      0              4784.7832      45.965894      20.047001      20.857         19219.274      6961.4286      3378.1654      4014.7555      1209.394       728.47907     -923.90745    
  24697000   257.8083      -352.42574     -276.87946     -352.25871      0              4644.3554      46.204788      20.047001      20.857         19319.16       4367.9615      4454.2968      5110.8079     -462.87535      1083.7222      22.871649    
  24697500   264.43289     -351.77183     -274.28434     -351.61508      0              5572.8719      46.369571      20.047001      20.857         19388.059      6573.3825      6313.6453      3831.5877      2096.2829     -513.48744      1774.9315    
  24698000   275.15091     -353.69395     -273.06572     -353.52069      0              2338.065       46.239197      20.047001      20.857         19333.547      1824.188       3173.8882      2016.119       250.95374      155.21094     -531.53836    
  24698500   273.79714     -352.68898     -272.45745     -352.51363      0              3516.8692      46.066912      20.047001      20.857         19261.511      2966.1457      5781.4146      1803.0475      592.85141      1036.3621     -454.35853    
  24699000   266.67892     -351.8302      -273.68454     -351.6775       0              3557.1036      46.269294      20.047001      20.857         19346.131      6473.4306      3096.8969      1100.9832      961.62557      475.75061      961.29241    
  24699500   270.4462      -350.81532     -271.56573     -350.66858      0              4363.5657      46.477776      20.047001      20.857         19433.302      2668.7673      4991.5562      5430.3735     -1672.8082     -243.40975      877.03336    
  24700000   276.14743     -349.63678     -268.71654     -349.47992      0              2862.002       46.107376      20.047001      20.857         19278.43       2043.2942      4641.9038      1900.8078      1343.1261     -4.6763767     -1090.07      
  24700500   271.35447     -352.11591     -272.60017     -351.93764      0              5166.303       45.915278      20.047001      20.857         19198.11       5803.771       5162.1646      4532.9733     -262.4323       648.19681      198.76582    
  24701000   273.18372     -352.85777     -272.80599     -352.69639      0              4599.9181      46.148242      20.047001      20.857         19295.517      6052.2918      2848.5555      4898.907       773.85334     -349.37664     -404.77904    
  24701500   277.96046     -350.40346     -268.95194     -350.23222      0              4564.36        46.136124      20.047001      20.857         19290.45       4870.537       3940.7037      4881.8394     -1407.7076     -747.30328     -1230.7221    
  24702000   280.50382     -353.93959     -271.74278     -353.76275      0              6688.009       45.92688       20.047001      20.857         19202.961      7666.094       6119.5761      6278.3569     -1672.3364      369.68557     -669.63952    
  24702500   265.44558     -351.9166      -274.13235     -351.73704      0              3136.885       45.912177      20.047001      20.857         19196.813      3659.673       3403.802       2347.1798      1413.1743      520.0408       1359.5011    
  24703000   265.15101     -354.8613      -277.16337     -354.67743      0              4773.0421      46.273727      20.047001      20.857         19347.985      2830.9479      5484.2791      6003.8994     -536.15141     -1690.7206      1236.7404    
  24703500   273.17851     -351.48924     -271.43899     -351.30961      0              6229.0947      46.184646      20.047001      20.857         19310.738      7216.0138      6034.9121      5436.3582      530.96488      336.40538     -536.92356    
  24704000   275.5952      -354.33707     -273.57866     -354.15726      0              4378.7692      45.928575      20.047001      20.857         19203.669      5451.1561      3789.1176      3896.0338      290.74871      11.414529     -287.04873    
  24704500   272.83046     -352.8861      -272.93784     -352.71768      0              5387.1534      46.018762      20.047001      20.857         19241.378      7449.9386      3974.7852      4736.7365     -1485.2712      1324.5052     -370.00396    
  24705000   258.02997     -352.80878     -277.19755     -352.66598      0              4148.2794      46.207404      20.047001      20.857         19320.254      4170.0441      5226.4548      3048.3392      1982.9742      249.04217     -1490.8927    
  24705500   268.80065     -351.32754     -272.56015     -351.14358      0              3948.6018      46.301694      20.047001      20.857         19359.678      4754.281       3907.0343      3184.4902      21.150513      81.778796      1148.4069    
  24706000   267.46544     -348.43509     -270.05896     -348.26296      0              3966.2856      46.158653      20.047001      20.857         19299.87       4930.8217      3492.8532      3475.1818      427.29452     -978.3651       39.291079    
  24706500   273.93257     -349.99758     -269.72637     -349.81904      0              4940.8133      46.053531      20.047001      20.857         19255.916      6429.3381      3949.378       4443.7238     -1802.2559      546.87366     -1232.6511    
  24707000   273.79513     -350.09521     -269.86427     -349.91216      0              5323.5147      46.129608      20.047001      20.857         19287.725      8773.9844      3907.6203      3288.9393      1793.6902      78.861857      908.14902    
  24707500   265.46063     -349.06432     -271.27566     -348.88817      0              4316.7492      46.258037      20.047001      20.857         19341.424      4460.7883      2512.569       5976.8903      631.25118     -1306.7737      503.60712    
  24708000   281.45893     -352.94961     -270.47293     -352.76548      0              4130.3078      46.248585      20.047001      20.857         19337.472      6066.0693      3762.9177      2561.9364      442.45401      735.25847      1331.2215    
  24708500   280.96495     -349.58359     -267.25166     -349.4021       0              6069.6165      46.225293      20.047001      20.857         19327.733      5488.9898      5758.6491      6961.2106     -688.04625      511.96437      757.75091    
  24709000   267.07761     -351.72848     -273.466       -351.5635       0              5940.7562      46.333779      20.047001      20.857         19373.094      8956.7137      4996.1937      3869.3612      910.25406     -847.75106     -1937.4813    
  24709500   270.81407     -350.38809     -271.0307      -350.20433      0              4296.8552      46.633972      20.047001      20.857         19498.61       4272.3469      3927.6892      4690.5294     -984.77607      1227.6866      3090.3365    
  24710000   257.03854     -350.24088     -274.92017     -350.05768      0              3462.6486      46.414121      20.047001      20.857         19406.686      5096.3141      3647.0236      1644.608      -14.803334      1344.001      -715.23428    
  24710500   272.01531     -351.17076     -271.46136     -350.98639      0              5454.5587      46.09808       20.047001      20.857         19274.543      6885.2672      5302.0488      4176.36       -774.94991     -533.78962      573.16516    
  24711000   278.9772      -351.24411     -269.49466     -351.06397      0              6908.3846      46.113144      20.047001      20.857         19280.842      6163.6752      7292.3246      7269.154      -577.28508      412.03817      230.74334    
  24711500   268.78434     -353.46018     -274.69756     -353.28329      0              4853.2868      46.280708      20.047001      20.857         19350.903      5802.5545      4837.7357      3919.5701      1354.3904     -1015.827       753.08237    
  24712000   271.74429     -351.51799     -271.88802     -351.33474      0              4552.4499      46.456169      20.047001      20.857         19424.267      6534.8204      2964.0327      4158.4966      692.46758      1634.8893      264.73149    
  24712500   269.63226     -351.01542     -272.00433     -350.85029      0              5065.9728      46.531598      20.047001      20.857         19455.806      3979.8985      5157.1596      6060.8603     -941.856        1144.3161      434.05386    
  24713000   269.43467     -350.58413     -271.63095     -350.40269      0              3077.4693      46.221131      20.047001      20.857         19325.993      4435.4945      1595.1101      3201.8032      8.0979567      431.27685      1049.1822    
  24713500   275.31489     -354.73263     -274.05635     -354.55709      0              6696.0925      45.963997      20.047001      20.857         19218.48       7651.0988      6430.296       6006.8825      895.24868      698.81024     -98.973372    
  24714000   268.75376     -352.19242     -273.43877     -352.01161      0              5325.9212      46.027699      20.047001      20.857         19245.115      5534.6103      4562.3105      5880.843       436.13543     -1370.4096     -2419.3587    
  24714500   270.31775     -351.03113     -271.81918     -350.85318      0              4294.0309      46.313426      20.047001      20.857         19364.584      6223.3962      4061.2228      2597.4738      37.047518      1395.8197     -586.83658    
  24715000   266.8402      -350.26442     -272.0715      -350.0942       0              2861.6492      46.433042      20.047001      20.857         19414.597      3184.8983      2554.8547      2845.1947     -757.91584     -348.58908     -1205.4232    
  24715500   269.54398     -348.40436     -269.41915     -348.23473      0              3515.2652      46.263091      20.047001      20.857         19343.537      2707.6545      1840.8201      5997.321      -11.829046      511.76044      1461.7208    
  24716000   262.79156     -350.6705      -273.66397     -350.48636      0              4065.957       46.317953      20.047001      20.857         19366.477      6381.0985      4470.9044      1345.8682      111.41692      291.88575     -1108.5905    
  24716500   267.2356      -351.77979     -273.47101     -351.612        0              4044.7179      46.592018      20.047001      20.857         19481.068      2649.4878      6202.1165      3282.5495      32.183379     -1523.4835      2640.7401    
  24717000   272.87434     -352.15706     -272.19595     -351.9753       0              4319.8234      46.326493      20.047001      20.857         19370.047      4939.9479      5710.8413      2308.681       901.49002     -604.35981     -318.96498    
  24717500   262.48777     -350.96071     -274.04319     -350.77893      0              5715.1602      46.077422      20.047001      20.857         19265.905      8099.6873      3306.856       5738.9374     -1683.1845     -90.189797     -1436.954     
  24718000   263.22952     -350.08167     -272.9468      -349.90762      0              3243.9332      46.215759      20.047001      20.857         19323.747      3946.2379      5159.4366      626.12501      605.93588     -1036.89       -1432.2828    
  24718500   273.32187     -351.54657     -271.45431     -351.37307      0              4842.1193      46.391587      20.047001      20.857         19397.264      4382.5616      3188.1123      6955.684       2302.8678      1446.0741     -1085.5126    
  24719000   268.64885     -349.35639     -270.63348     -349.1958       0              1677.5537      46.483539      20.047001      20.857         19435.711      3268.6003      1502.7567      261.30404      791.24272      1782.208       457.23921    
  24719500   266.57876     -350.15588     -272.03957     -349.98783      0              7033.955       46.322559      20.047001      20.857         19368.402      8082.5672      6162.2426      6857.0553     -602.47926     -1620.0159     -596.33195    
  24720000   265.63705     -350.93489     -273.09454     -350.75883      0              4410.4676      46.328851      20.047001      20.857         19371.033      4679.7296      4962.8697      3588.8037      443.16903      696.30438     -1707.7716    
  24720500   269.749       -351.28299     -272.2377      -351.10858      0              5467.3398      46.15962       20.047001      20.857         19300.274      5049.226       6383.1282      4969.6653      520.71056      2525.712      -32.839166    
  24721000   266.86831     -348.80731     -270.60615     -348.64594      0              4313.0639      46.325587      20.047001      20.857         19369.668      5052.7541      4916.5154      2969.9222      192.03734     -938.48936     -1705.4137    
  24721500   272.9808      -351.31438     -271.32207     -351.13257      0              5715.3672      46.50398       20.047001      20.857         19444.258      6693.39        5049.2639      5403.4478      839.9752       15.799531      531.93311    
  24722000   268.91274     -349.69019     -270.88995     -349.5183       0              2997.9034      46.537585      20.047001      20.857         19458.309      3505.7252      2108.9963      3378.9888      616.14698     -254.55495      105.09312    
  24722500   270.85129     -350.86278     -271.49448     -350.68541      0              4843.9386      46.424165      20.047001      20.857         19410.886      3841.2853      5383.921       5306.6093      101.03832      893.77         777.06825    
  24723000   267.28544     -354.13713     -275.81375     -353.95472      0              4367.2478      46.555842      20.047001      20.857         19465.943      4055.8503      5695.988       3349.9053     -2185.7758      267.68113     -859.86182    
  24723500   262.41137     -351.18044     -274.28532     -350.99614      0              2719.3292      46.5243        20.047001      20.857         19452.754      2829.8559      3310.5117      2017.6199     -349.22303     -673.3164      -766.59405    
  24724000   266.10765     -350.97569     -272.99743     -350.81021      0              5192.1443      46.531089      20.047001      20.857         19455.593      6141.035       4887.7492      4547.6487     -144.58762     -175.75528     -556.51813    
  24724500   267.55569     -351.81993     -273.41735     -351.63561      0              3673.2582      46.614051      20.047001      20.857         19490.281      3449.6849      3553.6891      4016.4006      207.15179      856.27366      1264.0194    
  24725000   270.89418     -352.30152     -272.92065     -352.12593      0              4970.4771      46.399748      20.047001      20.857         19400.677      5611.6717      4255.3901      5044.3695     -619.51013     -365.33556     -2495.5741    
  24725500   269.94695     -349.87819     -270.77489     -349.69673      0              4740.8459      46.374649      20.047001      20.857         19390.182      2457.53        5748.039       6016.9686      1131.8386      819.9497       578.04672    
  24726000   270.61749     -353.57569     -274.2759      -353.39416      0              2428.3186      46.537798      20.047001      20.857         19458.398      2913.5721      1459.6843      2911.6992      561.5645       62.712859      516.59551    
  24726500   276.73655     -350.65903     -269.56615     -350.47592      0              3340.1079      46.568306      20.047001      20.857         19471.154      5067.047       2528.2234      2425.0535     -1168.9695      1468.6305      359.46161    
  24727000   269.1261      -350.21758     -271.35482     -350.03325      0              5240.4474      46.439986      20.047001      20.857         19417.501      6927.5326      4838.6917      3955.1178      725.40802      1358.286      -349.77841    
  24727500   263.65458     -351.58597     -274.32655     -351.41454      0              5419.4567      46.266197      20.047001      20.857         19344.836      5221.8416      5332.9655      5703.5631     -902.39893      494.79037     -1847.207     
  24728000   262.89154     -350.91287     -273.87704     -350.73385      0              3497.9004      46.531388      20.047001      20.857         19455.718      1605.5417      4741.3231      4146.8364      610.38627     -109.63026      400.51851    
  24728500   268.87107     -352.50534     -273.71731     -352.32105      0              5445.6356      46.634721      20.047001      20.857         19498.924      5229.2819      6135.9166      4971.7085      1192.2219     -120.31283     -895.31052    
  24729000   266.95033     -350.324       -272.09881     -350.18116      0              5241.3394      46.230312      20.047001      20.857         19329.832      8136.053       3164.5261      4423.4391     -963.00168     -961.78966      1175.2213    
  24729500   275.17491     -350.48995     -269.85469     -350.31997      0              3857.8748      46.434962      20.047001      20.857         19415.4        3947.2485      4335.8443      3290.5316     -2379.3535      1275.4114     -328.10166    
  24730000   263.30078     -349.44031     -272.28456     -349.2833       0              3559.9109      46.760336      20.047001      20.857         19551.446      2410.4564      3819.7362      4449.5402      1344.5106     -147.67893      1753.4818    
  24730500   272.92963     -349.56792     -269.5906      -349.38566      0              5086.8913      46.406315      20.047001      20.857         19403.422      6949.8046      5467.837       2843.0323      1921.2985      140.81467      144.40835    
  24731000   273.74771     -351.54648     -271.32944     -351.36219      0              4153.5817      46.340918      20.047001      20.857         19376.079      5009.0267      4164.4561      3287.2623     -17.884601      1698.5733      538.91959    
  24731500   264.98511     -350.26541     -272.61609     -350.09504      0              4134.5607      46.312501      20.047001      20.857         19364.197      4964.0047      5101.1183      2338.559      -944.54829      261.08283     -13.949156    
  24732000   262.70101     -350.28906     -273.30906     -350.12722      0              6217.1017      46.318006      20.047001      20.857         19366.499      8546.091       6837.8129      3267.4011     -915.45456     -2099.5225      364.08008    
  24732500   268.49818     -351.20244     -272.52369     -351.05773      0              4724.8568      46.539218      20.047001      20.857         19458.992      4986.5929      4564.9822      4622.9955     -535.74675     -62.757569      575.87588    
  24733000   269.37248     -351.70092     -272.76596     -351.52167      0              5743.1403      46.422854      20.047001      20.857         19410.338      5901.4498      6267.8773      5060.0938     -994.5197       291.95245     -583.06331    
  24733500   270.27311     -348.63283     -269.43395     -348.4488       0              6796.236       46.228579      20.047001      20.857         19329.107      9916.8449      2195.3815      8276.4817      267.15397      1412.2616      268.7856     
  24734000   273.66953     -351.71501     -271.52088     -351.53097      0              1317.1806      46.408407      20.047001      20.857         19404.297      2197.5318      172.86084      1581.1491      1714.5158     -29.264308      155.09017    
  24734500   268.54895     -351.23792     -272.54429     -351.06022      0              4121.3991      46.556014      20.047001      20.857         19466.015      2618.6553      6765.2539      2980.2881     -820.54847      1987.5341      369.26815    
  24735000   269.0424      -350.37254     -271.5343      -350.19529      0              4715.1574      46.407087      20.047001      20.857         19403.745      6535.6717      3835.4004      3774.4         502.13801     -685.68038      216.16102    
  24735500   270.55473     -351.84235     -272.56096     -351.66611      0              4938.03        46.292178      20.047001      20.857         19355.699      7034.7748      4274.5068      3504.8083     -1151.1029     -1488.9613      1302.577     
  24736000   273.41213     -348.04508     -267.92637     -347.86359      0              3755.2798      46.620047      20.047001      20.857         19492.788      3295.0944      3467.9329      4502.8121      1020.5878      2001.707       2033.8027    
  24736500   279.6204      -349.94535     -268.00741     -349.76134      0              4513.0067      46.668452      20.047001      20.857         19513.027      2402.763       5690.2177      5446.0393      1351.0715     -1472.9724     -1301.1658    
  24737000   271.0513      -350.16516     -270.73825     -349.98115      0              5978.385       46.670376      20.047001      20.857         19513.831      3475.3833      8961.3368      5498.4348      1415.2486      2973.4493     -1451.6149    
  24737500   264.76686     -351.01617     -273.4308      -350.8323       0              3452.2333      46.561927      20.047001      20.857         19468.487      3204.3091      4936.7406      2215.6504     -825.57139     -247.06197     -254.56117    
  24738000   278.03279     -349.8344      -268.36169     -349.66872      0              4406.615       46.274894      20.047001      20.857         19348.473      5120.5483      4876.0624      3223.2343      12.325574      980.23479     -2130.3733    
  24738500   270.18492     -349.58144     -270.40842     -349.4176       0              4678.3658      46.235329      20.047001      20.857         19331.93       4825.4002      3713.255       5496.4421     -161.2539      -182.68699      471.98189    
  24739000   263.23191     -347.71126     -270.57569     -347.57944      0              4440.195       46.606759      20.047001      20.857         19487.232      5590.2724      3483.4818      4246.8309     -411.89926      1360.7195      1401.5721    
  24739500   269.41986     -351.85698     -272.90814     -351.68058      0              3963.7794      46.560815      20.047001      20.857         19468.022      4347.9903      4005.1239      3538.2241      177.63815     -555.07869      716.6569     
  24740000   268.25399     -350.73316     -272.12595     -350.54896      0              2814.4137      46.453991      20.047001      20.857         19423.357      5486.4139      33.819781      2923.0075     -958.56526      340.45324      889.63435    
  24740500   269.21327     -349.55313     -270.66482     -349.37309      0              3460.9802      46.451317      20.047001      20.857         19422.238      3673.1941      2577.9906      4131.7559      1526.1558      299.78369      1020.1346    
  24741000   272.7901      -350.8884      -270.95197     -350.72921      0              4531.7144      46.487929      20.047001      20.857         19437.547      5000.4299      2659.4145      5935.2989      455.12987      812.96638      1028.008     
  24741500   271.52533     -349.39959     -269.83378     -349.25878      0              6208.7004      46.574857      20.047001      20.857         19473.893      6701.8776      4541.5513      7382.6724     -696.81737     -800.10913      2028.4468    
  24742000   263.81049     -347.72712     -270.42201     -347.55116      0              3849.3085      46.4712        20.047001      20.857         19430.552      4517.0184      1299.4196      5731.4875      178.85226      290.41762     -119.56586    
  24742500   272.88497     -348.11323     -268.14899     -347.92918      0              5628.0946      46.330692      20.047001      20.857         19371.803      6675.5064      5591.0214      4617.7559      678.80903     -1729.3429      686.7955     
  24743000   276.47344     -350.39132     -269.37555     -350.21864      0              3413.5286      46.544611      20.047001      20.857         19461.247      3500.1629      3757.9586      2982.4642     -192.80539     -907.05967     -213.89143    
  24743500   264.74353     -349.76207     -272.18355     -349.60679      0              5140.5137      46.6527        20.047001      20.857         19506.441      6437.9116      3458.0618      5525.5676     -917.68862      1926.4197      659.20456    
  24744000   267.59169     -348.62646     -270.21334     -348.47956      0              3676.8265      46.581945      20.047001      20.857         19476.857      4264.0444      2360.5612      4405.874       1718.9238      569.20965      324.80172    
  24744500   278.74334     -346.45248     -264.77155     -346.28685      0              4640.0352      46.387656      20.047001      20.857         19395.621      4852.122       6743.3253      2324.6584      601.05718      1228.4651     -300.89992    
  24745000   266.09775     -345.27365     -267.2983      -345.13176      0              5789.0313      46.540443      20.047001      20.857         19459.504      4665.8307      7517.0192      5184.244      -1026.1162      53.893571      1226.5709    
  24745500   267.99728     -350.30792     -271.77594     -350.13734      0              3988.8656      46.825452      20.047001      20.857         19578.672      4709.7217      5459.1879      1797.6872     -342.16201      1693.7956     -616.86861    
  24746000   269.40331     -350.08285     -271.13886     -349.89898      0              3856.759       46.935161      20.047001      20.857         19624.544      5008.3641      2953.0749      3608.8381      555.00766     -1027.5765      331.13459    
  24746500   270.69839     -350.16894     -270.84545     -350.00805      0              4757.8113      46.620495      20.047001      20.857         19492.975      4107.2286      5972.0325      4194.1729      252.22181     -992.32819      389.89909    
  24747000   267.24847     -349.06404     -270.75149     -348.91111      0              2706.4927      46.473337      20.047001      20.857         19431.446      4983.2733      3224.3074     -88.102644     -471.26547     -1694.6347     -1073.7517    
  24747500   267.68314     -348.0708      -269.63087     -347.91626      0              5913.3102      46.454006      20.047001      20.857         19423.363      8085.9983      4137.0645      5516.8677     -141.42698      263.18898      325.49457    
  24748000   270.57716     -348.31211     -269.02415     -348.16576      0              3110.5569      46.444852      20.047001      20.857         19419.535      4061.1949      3856.4763      1413.9995      604.39031      70.444154      2341.6348    
  24748500   264.65206     -348.31577     -270.76405     -348.13335      0              2295.615       46.417053      20.047001      20.857         19407.912      3695.2392      1646.7708      1544.8351     -85.497845      59.605283     -1291.8455    
  24749000   274.61889     -351.64078     -271.16845     -351.46267      0              5227.6342      46.552354      20.047001      20.857         19464.484      3280.5523      7731.4989      4670.8514     -538.35758     -1184.0782      1614.0619    
  24749500   272.97676     -350.96574     -270.97461     -350.83008      0              3885.7473      46.745987      20.047001      20.857         19545.446      5555.73        3628.5907      2472.9213      517.9585      -1415.5478     -382.60782    
  24750000   266.46848     -352.04056     -273.95657     -351.86771      0              5731.2778      46.545197      20.047001      20.857         19461.492      8613.6766      3484.1435      5096.0132     -219.10943      925.30543      1058.3247    
  24750500   275.91762     -350.30047     -269.44757     -350.16807      0              2676.3565      46.474114      20.047001      20.857         19431.771      2020.0713      4798.5732      1210.4249     -1158.545       1372.7896     -880.59312    
  24751000   266.38903     -351.34789     -273.28718     -351.16382      0              4128.01        46.822559      20.047001      20.857         19577.462      4522.2936      3444.2426      4417.4939      871.46462      27.364372     -793.42263    
  24751500   270.66167     -351.57957     -272.26684     -351.40554      0              3344.0676      47.015081      20.047001      20.857         19657.96       3188.7972      4587.5479      2255.8576     -570.14475     -1209.8167      813.69762    
  24752000   280.09351     -348.62284     -266.54627     -348.43984      0              3528.3554      46.504221      20.047001      20.857         19444.359      5237.5792      2339.0934      3008.3935      524.36019     -1130.2266      522.05809    
  24752500   267.2625      -348.09131     -269.77465     -347.91688      0              5045.6689      46.385359      20.047001      20.857         19394.66       7309.1895      2090.2291      5737.5882     -751.73955      458.53903     -2073.5574    
  24753000   270.23864     -351.16359     -271.97482     -350.97992      0              5624.2319      46.566369      20.047001      20.857         19470.344      5607.2132      7276.9609      3988.5215     -1865.9513      175.06485     -2270.1138    
  24753500   268.3485      -350.22257     -271.58767     -350.05954      0              1519.7596      46.74111       20.047001      20.857         19543.407      5435.5088     -1313.3344      437.10455      821.99489     -343.58797      777.96807    
  24754000   263.7641      -352.27222     -274.9807      -352.13408      0              4059.8836      46.619626      20.047001      20.857         19492.612      4235.1374      3281.1354      4663.3779     -437.15416      853.47015     -313.81829    
  24754500   265.08737     -349.90504     -272.22576     -349.72775      0              5233.2633      46.336446      20.047001      20.857         19374.209      5240.9029      6138.1401      4320.7469      150.70059     -2215.473       121.31564    
  24755000   269.83922     -350.3861      -271.31437     -350.20206      0              5633.4487      46.465439      20.047001      20.857         19428.143      5873.8715      6014.4927      5011.9821      1027.0334      213.26174      302.42904    
  24755500   276.0268      -350.48045     -269.59556     -350.29652      0              5740.0723      46.363766      20.047001      20.857         19385.632      4368.9613      6741.914       6109.3416     -684.24517     -2183.1593     -1783.7488    
  24756000   274.22631     -348.78156     -268.42427     -348.60376      0              4623.1159      46.220751      20.047001      20.857         19325.834      5578.8741      3627.8804      4662.5931     -1055.3536     -1360.6471      1352.1129    
  24756500   275.0215      -350.02283     -269.43252     -349.83877      0              4060.4673      45.943706      20.047001      20.857         19209.996      6338.5533      1176.5012      4666.3474      763.86129      74.707533      1307.2007    
  24757000   270.18926     -351.8475      -272.67319     -351.66525      0              5314.7134      46.077221      20.047001      20.857         19265.822      5047.5286      6136.951       4759.6604     -1197.6061     -2010.3133     -982.18024    
  24757500   263.73063     -352.17828     -274.89657     -352.00111      0              3636.89        46.598285      20.047001      20.857         19483.689      4021.2502      2280.8889      4608.531       335.63113      518.65995      946.11055    
  24758000   261.75054     -350.86641     -274.16493     -350.69954      0              2525.9818      46.734088      20.047001      20.857         19540.471      3312.288       1882.4535      2383.2039     -1368.4841      450.50159     -419.49826    
  24758500   267.14054     -350.82496     -272.54403     -350.65495      0              3346.2834      46.301794      20.047001      20.857         19359.72       6414.5998      603.37077      3020.8796     -993.17685     -392.59953     -41.843668    
  24759000   278.48775     -352.16718     -270.56115     -351.98401      0              5249.352       46.276301      20.047001      20.857         19349.061      4369.6204      4755.7683      6622.6672     -30.132144      1295.0065     -2072.741     
  24759500   279.44605     -350.06493     -268.17808     -349.89234      0              4107.1872      46.465798      20.047001      20.857         19428.293      5397.0282      2110.6747      4813.8587      945.71314     -1688.7853      560.03751    
  24760000   263.40743     -347.27113     -270.08413     -347.09452      0              4384.8114      46.520876      20.047001      20.857         19451.323      5176.5882      3759.5079      4218.338       277.24021      2405.0513      727.37249    
  24760500   275.83346     -349.49336     -268.66512     -349.31078      0              6201.0134      46.325253      20.047001      20.857         19369.529      7337.5984      5718.3209      5547.1208     -20.164305     -1162.2117     -1303.7125    
  24761000   281.33195     -351.58055     -269.14107     -351.41283      0              4974.8299      46.383502      20.047001      20.857         19393.884      4641.3957      6170.9424      4112.1515     -103.92146     -246.9946      -101.42778    
  24761500   267.4011      -350.16521     -271.80793     -349.98189      0              7518.3003      46.349918      20.047001      20.857         19379.841      8342.5961      6027.6552      8184.6495     -22.824821      68.249581      2600.7726    
  24762000   265.75564     -351.25739     -273.38228     -351.08487      0              2594.1054      46.377538      20.047001      20.857         19391.39       434.47911      5179.4172      2168.4198      113.66798      1982.9067      2568.2167    
  24762500   262.95161     -351.3796      -274.32617     -351.1962       0              6029.1803      46.069063      20.047001      20.857         19262.41       6112.9795      6290.8795      5683.6819     -620.94677     -1037.6415     -292.80243    
  24763000   269.84173     -351.36092     -272.28845     -351.20608      0              4013.7087      46.330071      20.047001      20.857         19371.543      4369.6179      5510.83        2160.6782      278.92108      500.51641     -1084.091     
  24763500   271.81012     -349.79743     -270.14817     -349.61418      0              5244.6583      46.622554      20.047001      20.857         19493.836      5957.6468      6420.0982      3356.2298      1105.006       832.56639     -1767.9092    
  24764000   274.88436     -350.48467     -269.93455     -350.30513      0              5508.235       46.498586      20.047001      20.857         19442.003      5879.2024      5662.4533      4983.0494     -263.80344     -925.76516      373.1544     
  24764500   267.76179     -348.28767     -269.8247      -348.11634      0              3766.0405      46.252269      20.047001      20.857         19339.012      5039.6077      2682.1968      3576.3171     -405.54333      974.16337      356.09962    
  24765000   263.16956     -351.1847      -274.0674      -351.00313      0              6604.9411      46.100057      20.047001      20.857         19275.37       9474.2213      3718.2595      6622.3426      0.73869896    -317.95047      1094.8323    
  24765500   265.19912     -350.15688     -272.44485     -349.98715      0              4698.4295      46.458148      20.047001      20.857         19425.095      6947.4669      2077.788       5070.0338     -466.86412     -350.79806     -1420.4345    
  24766000   270.5592      -349.27633     -269.99362     -349.10682      0              6125.5689      46.679981      20.047001      20.857         19517.848      6270.6828      5233.943       6872.0811      468.58495     -307.3527      -658.08515    
  24766500   277.443       -352.95898     -271.65909     -352.77595      0              3988.9741      46.473974      20.047001      20.857         19431.712      5672.2792      1450.7751      4843.868      -1322.6775     -755.05394     -1216.29      
  24767000   274.24864     -350.36777     -270.00394     -350.19163      0              4364.2843      45.970034      20.047001      20.857         19221.004      5544.1918      4563.905       2984.7561     -95.928151      504.37027      2293.1136    
  24767500   267.73231     -352.22119     -273.76686     -352.04137      0              7175.3948      46.118541      20.047001      20.857         19283.098      7172.8842      6661.6264      7691.6738     -1878.846       586.01303      380.93309    
  24768000   262.40367     -351.8982      -275.00533     -351.74389      0              4614.0458      46.609761      20.047001      20.857         19488.487      6887.8363      5094.9908      1859.3104     -183.04394     -808.75282     -3111.0303    
  24768500   262.04494     -347.11947     -270.33172     -346.97962      0              6326.6748      46.469194      20.047001      20.857         19429.713      6511.2307      7041.9668      5426.8269     -914.10845      473.89036     -1630.016     
  24769000   270.73769     -350.13653     -270.80152     -349.96174      0              6024.6609      46.307734      20.047001      20.857         19362.204      7219.1884      5461.2148      5393.5795     -1124.4855      385.83784     -1047.2316    
  24769500   273.12585     -351.38426     -271.34944     -351.209        0              4670.8184      46.433026      20.047001      20.857         19414.591      5292.3372      3280.2057      5439.9124     -1927.1905     -1185.4796      211.47742    
  24770000   275.32248     -350.43435     -269.75585     -350.2615       0              6950.8366      46.567444      20.047001      20.857         19470.793      8272.9721      5319.3914      7260.1464     -742.94953      406.42681      148.90271    
  24770500   277.63329     -349.80735     -268.4517      -349.62619      0              3947.9111      46.45918       20.047001      20.857         19425.526      2759.6937      3892.8453      5191.1942     -1076.1789     -605.68509     -749.30505    
  24771000   274.16386     -350.40904     -270.07005     -350.24632      0              4621.8696      46.409255      20.047001      20.857         19404.651      6499.4296      3540.9125      3825.2667     -669.11777      268.38432     -785.36979    
  24771500   270.40632     -349.99048     -270.75257     -349.82416      0              5045.221       46.589596      20.047001      20.857         19480.056      5366.2314      4389.0594      5380.3722      290.95195     -1428.5143      328.07691    
  24772000   264.76162     -349.32318     -271.73935     -349.1513       0              3965.1945      46.661935      20.047001      20.857         19510.302      4391.9396      5569.2808      1934.3631     -53.210477     -654.69038     -880.70905    
  24772500   268.88281     -350.77515     -271.98368     -350.60347      0              3574.4556      46.723035      20.047001      20.857         19535.85       1978.5941      6310.0917      2434.6808     -184.34063     -257.96131      295.56761    
  24773000   269.23083     -348.93815     -270.0447      -348.79827      0              4911.7865      46.790719      20.047001      20.857         19564.15       5192.0032      4671.3731      4871.9833     -1545.2219     -349.7188      -2842.1517    
  24773500   270.51085     -350.83882     -271.57029     -350.6962       0              2862.0889      47.103497      20.047001      20.857         19694.928      2841.8049      3534.2641      2210.1978     -344.0363      -926.80355     -667.4465     
  24774000   271.12535     -350.47829     -271.02968     -350.38971      0              5827.0199      47.014111      20.047001      20.857         19657.554      6084.9881      5695.8108      5700.2607      100.16429     -737.39319     -439.37859    
  24774500   270.64271     -351.55181     -272.24464     -351.40061      0              4556.9105      46.740882      20.047001      20.857         19543.311      5846.0772      2530.3759      5294.2782     -1594.5548     -225.4826       927.03819    
  24775000   271.29061     -350.97436     -271.47733     -350.79534      0              6148.5042      46.667454      20.047001      20.857         19512.61       8445.4514      4577.8213      5422.24        717.97644      1184.8649     -756.69808    
  24775500   278.35072     -351.64231     -270.07643     -351.47324      0              5342.8661      46.909119      20.047001      20.857         19613.655      4709.2192      5677.7913      5641.5878     -1738.6516     -1034.985       1063.8528    
  24776000   276.00699     -350.04663     -269.16754     -349.8788       0              4475.0883      46.927221      20.047001      20.857         19621.224      4214.666       3251.142       5959.457       763.03226      949.14792     -529.19227    
  24776500   274.69414     -349.93252     -269.43814     -349.75042      0              4760.6712      46.65745       20.047001      20.857         19508.427      7080.0937      3695.8451      3506.0746     -872.66818      1587.7255      1292.3269    
  24777000   277.9173      -352.89697     -271.4581      -352.72147      0              6302.5765      46.612806      20.047001      20.857         19489.761      8530.4185      5425.6266      4951.6846      126.86074      42.187024     -864.77804    
  24777500   264.60953     -353.66141     -276.12216     -353.47966      0              3865.272       46.905098      20.047001      20.857         19611.974      4342.7206      3032.4947      4220.6007     -504.52107      1809.4427     -1743.4912    
  24778000   268.14715     -348.90756     -270.33166     -348.7505       0              3438.0563      46.840406      20.047001      20.857         19584.925      3673.3205      3129.8509      3510.9975      205.84073     -1443.1661     -693.05998    
  24778500   275.20976     -352.03818     -271.3927      -351.8799       0              4952.2042      46.583751      20.047001      20.857         19477.612      6121.3241      6561.6004      2173.6879      60.781525      388.4911      -687.48237    
  24779000   277.77243     -348.79104     -267.39462     -348.63852      0              4833.4625      46.441575      20.047001      20.857         19418.165      8107.5638      1642.8831      4749.9406     -392.09595      416.65211      144.50035    
  24779500   275.45715     -349.12754     -268.40957     -348.99998      0              4328.4343      46.644124      20.047001      20.857         19502.855      4928.6696      4418.5834      3638.0497     -612.53337     -560.15654      785.06951    
  24780000   271.197       -350.23486     -270.76525     -350.07947      0              4105.2843      46.776599      20.047001      20.857         19558.246      4511.7957      2006.0267      5798.0304     -392.29709      139.25133      1176.4403    
  24780500   269.28706     -349.02213     -270.1122      -348.8544       0              2405.7712      46.593264      20.047001      20.857         19481.59       5941.5214     -395.66552      1671.4578     -295.02999     -710.51427      486.32268    
  24781000   275.53006     -351.3034      -270.56407     -351.14102      0              5012.1165      46.359754      20.047001      20.857         19383.954      5232.1293      5865.9285      3938.2917      70.986407     -1302.0461      285.3273     
  24781500   267.12641     -351.71278     -273.43599     -351.54617      0              4325.373       46.389923      20.047001      20.857         19396.569      5486.8023      3728.1412      3761.1757     -523.09205      206.68966     -58.083872    
  24782000   261.85512     -347.96138     -271.22925     -347.79925      0              2428.7669      46.396274      20.047001      20.857         19399.224      6217.4977     -71.02402       1139.827       215.13817     -2879.1694     -585.9345     
  24782500   282.38068     -351.9419      -269.19511     -351.78038      0              5824.0104      46.749536      20.047001      20.857         19546.93       6383.9681      4467.599       6620.464       34.548408      906.41789     -1955.148     
  24783000   275.91705     -353.60814     -272.75541     -353.44831      0              2620.0718      46.981989      20.047001      20.857         19644.123      2273.2237      2881.7867      2705.2049     -614.74691     -1206.5582     -2896.3264    
  24783500   279.34048     -352.75047     -270.89456     -352.58108      0              3874.8896      46.601499      20.047001      20.857         19485.033      5342.4179      3851.2532      2430.9978     -574.42877      945.0202       2135.0026    
  24784000   267.59848     -348.74493     -270.32981     -348.61532      0              6127.163       46.184511      20.047001      20.857         19310.682      9482.3725      3817.1683      5081.948      -155.20446     -1706.7256      113.03798    
  24784500   271.99644     -351.37975     -271.67588     -351.23298      0              2300.5323      46.560913      20.047001      20.857         19468.063      948.88001      3842.0963      2110.6207      848.75342      959.08915     -725.23901    
  24785000   273.5782      -347.85482     -267.68745     -347.73941      0              4547.9434      46.744413      20.047001      20.857         19544.788      5658.9809      3969.6659      4015.1834      278.83049     -2865.704       306.15522    
  24785500   270.87592     -347.82962     -268.4541      -347.67312      0              6668.4155      46.585976      20.047001      20.857         19478.542      7234.2356      4789.5161      7981.4948     -1135.2889      197.72803      1064.4136    
  24786000   272.28863     -347.89342     -268.10394     -347.72665      0              3197.3318      46.424966      20.047001      20.857         19411.221      3540.9035      3648.8574      2402.2345     -266.63313     -289.56172      1290.6797    
  24786500   270.39133     -351.02681     -271.79329     -350.8711       0              5789.0234      46.442015      20.047001      20.857         19418.349      3521.4519      7071.0527      6774.5656     -1328.9576     -1891.3802     -591.56347    
  24787000   275.97321     -349.98811     -269.11892     -349.86883      0              3731.7992      46.459487      20.047001      20.857         19425.654      5055.3378      4857.3974      1282.6623     -423.56598      1995.9172     -215.97135    
  24787500   273.36096     -352.12729     -272.02358     -351.97966      0              4382.8294      46.330544      20.047001      20.857         19371.741      7323.9953      2841.5503      2982.9425      564.03172     -636.66315      508.95714    
  24788000   269.17688     -353.3326      -274.45496     -353.17082      0              7263.9638      46.248081      20.047001      20.857         19337.261      6367.5219      8596.2933      6828.0763     -273.39892      700.22426     -732.17657    
  24788500   262.69684     -352.68542     -275.70665     -352.53543      0              3042.2611      46.406992      20.047001      20.857         19403.705      3347.0596      1051.8111      4727.9126      318.93662     -1451.8136      241.25595    
  24789000   270.72582     -353.39724     -274.06571     -353.22756      0              5221.5639      46.462686      20.047001      20.857         19426.992      6157.1507      5233.0444      4274.4967     -621.46992     -793.9188      -11.86051     
  24789500   262.53503     -348.7835      -271.85214     -348.64656      0              4652.9831      46.472605      20.047001      20.857         19431.14       5282.56        5574.7338      3101.6554      773.83923     -404.66822     -669.79647    
[...]
  27703500   268.17884     -349.63791     -271.05273     -349.48197      0              6172.7739      46.294685      20.047001      20.857         19356.748      7500.6984      5956.638       5060.9853      661.62185     -1189.5052     -67.339426    
  27704000   266.57355     -351.46183     -273.34705     -351.30617      0              3587.2839      46.28574       20.047001      20.857         19353.007      4252.9989      4176.1078      2332.7449     -308.55592     -1063.541      -826.76705    
  27704500   271.82324     -352.37565     -272.72254     -352.20508      0              4328.5176      45.825994      20.047001      20.857         19160.779      2818.5404      5898.4307      4268.5817     -692.98106     -1148.3064     -609.96343    
  27705000   259.66195     -348.24226     -272.15281     -348.08176      0              5889.4745      45.834118      20.047001      20.857         19164.175      6781.0351      7148.7246      3738.6637      148.84462     -345.0848      -162.42438    
  27705500   270.24496     -352.36006     -273.16943     -352.18938      0              6151.6912      46.161602      20.047001      20.857         19301.103      6338.4121      5502.6374      6614.0242     -1240.0991     -1807.8599     -1992.3625    
  27706000   264.75278     -348.47313     -270.8919      -348.3415       0              4427.9176      46.302773      20.047001      20.857         19360.129      6762.2973      1948.0828      4573.3727     -1154.1363     -192.24086     -118.7195     
  27706500   262.29682     -349.78532     -272.92376     -349.6634       0              4772.0953      46.332836      20.047001      20.857         19372.699      5078.3205      6336.4125      2901.5529      328.25717     -718.66864     -3611.3947    
  27707000   281.06505     -350.65534     -268.29407     -350.518        0              4349.495       46.292192      20.047001      20.857         19355.705      5445.7506      5829.4195      1773.3148      835.97728     -475.357       -1094.996     
  27707500   265.04373     -349.08391     -271.41742     -348.95348      0              2457.3142      46.376839      20.047001      20.857         19391.098      5390.4713     -401.29324      2382.7647      56.182458      207.18059     -3655.7111    
  27708000   262.38122     -348.48588     -271.59959     -348.40376      0              3779.9879      46.65239       20.047001      20.857         19506.311      6448.7965      4093.2135      797.95354     -511.37636     -2459.4056      205.54695    
  27708500   264.60132     -350.29078     -272.75393     -350.17006      0              3874.0594      46.590946      20.047001      20.857         19480.62       3630.1919      2672.0262      5319.9602     -1248.0755     -936.49876      1430.4685    
  27709000   272.2796      -349.26234     -269.4755      -349.10434      0              4849.313       46.549335      20.047001      20.857         19463.222      5072.9795      6995.6746      2479.2848      271.81306     -6.6234968      1282.8919    
  27709500   269.64783     -349.52873     -270.51308     -349.39532      0              3229.8634      46.740763      20.047001      20.857         19543.262      2711.1774      4291.5862      2686.8267     -1371.127       1401.551      -1238.5898    
  27710000   272.31737     -350.78975     -270.99184     -350.68804      0              4211.7322      46.806948      20.047001      20.857         19570.935      4073.0674      5116.9529      3445.1762      1086.7557     -33.560538      86.409605    
  27710500   268.23183     -350.4364      -271.83569     -350.33592      0              4599.9567      46.676462      20.047001      20.857         19516.376      4661.0806      6415.6112      2723.1784     -866.16872      1321.4218     -1301.2411    
  27711000   268.64469     -350.31288     -271.59119     -350.2217       0              4905.4038      46.473685      20.047001      20.857         19431.591      2676.3316      6975.0534      5064.8265     -408.05344     -970.536        588.84033    
  27711500   263.76869     -350.39317     -273.10031     -350.25664      0              4879.9318      46.427315      20.047001      20.857         19412.203      5077.2201      4858.3768      4704.1984     -895.29477      1658.1427     -1295.6099    
  27712000   270.16242     -352.98879     -273.82235     -352.83145      0              3543.0259      46.71615       20.047001      20.857         19532.97       6128.2684      1995.1456      2505.6638      1341.0986      1265.6226      315.07651    
  27712500   266.40272     -351.16046     -273.09574     -351.01051      0              5105.7563      46.64167       20.047001      20.857         19501.829      4781.301       7118.5682      3417.3997     -769.05159     -1000.7251      970.06183    
  27713000   270.77697     -350.5477      -271.20118     -350.40623      0              3925.5897      46.296781      20.047001      20.857         19357.624      3566.5979      4705.4225      3504.7489     -611.21674      2503.471      -133.68201    
  27713500   275.11955     -348.89666     -268.27762     -348.76114      0              5223.159       46.335183      20.047001      20.857         19373.681      6042.5639      5208.4433      4418.4697      1095.324      -411.77962     -689.10463    
  27714000   273.2081      -351.7126      -271.65368     -351.56493      0              5943.5232      46.634366      20.047001      20.857         19498.775      6434.1228      5699.8992      5696.5476     -1555.8288      271.13214     -2894.576     
  27714500   271.46053     -350.79112     -271.2443      -350.65277      0              3840.6911      46.976107      20.047001      20.857         19641.664      3936.4219      4653.7028      2931.9487     -425.4785      -254.66395      893.58492    
  27715000   271.87625     -351.80048     -272.13183     -351.63609      0              5051.9022      46.576731      20.047001      20.857         19474.677      7233.3486      3393.9922      4528.3659      55.089609     -612.86018     -1659.8757    
  27715500   268.48754     -351.19658     -272.52093     -351.03466      0              4634.4176      46.604492      20.047001      20.857         19486.284      4359.4521      5836.3351      3707.4656     -2026.242       680.11073     -127.28802    
  27716000   272.45846     -351.596       -271.75675     -351.50005      0              1822.2957      46.928384      20.047001      20.857         19621.71       2577.2215      2130.4999      759.16555      1581.2577     -1309.0395     -697.65204    
  27716500   272.26662     -351.10103     -271.318       -351.0212       0              5261.6562      46.60407       20.047001      20.857         19486.108      8021.0485      1913.1718      5850.7483      85.341494      1487.5955     -468.53585    
  27717000   265.75921     -348.50703     -270.63088     -348.44428      0              2510.2844      46.267303      20.047001      20.857         19345.299      4086.2814      2076.4087      1368.1631     -1163.1594     -556.16821     -889.59894    
  27717500   267.30505     -351.77917     -273.45004     -351.63804      0              3907.4548      46.436747      20.047001      20.857         19416.147      4039.0937      3582.583       4100.6877     -1620.1855      489.35756     -245.89214    
  27718000   263.71676     -348.6496      -271.37196     -348.51151      0              3902.2955      46.666987      20.047001      20.857         19512.415      2676.9693      5552.2893      3477.6278      371.17113     -433.04344      989.20513    
  27718500   271.5597      -349.12084     -269.54495     -348.99388      0              5838.6368      46.553129      20.047001      20.857         19464.808      5723.8671      7403.5507      4388.4925     -2046.6002      127.37562     -491.51165    
  27719000   271.1435      -348.90419     -269.45026     -348.83073      0              4589.4055      46.586195      20.047001      20.857         19478.634      3852.2273      4634.4411      5281.5481     -465.89617      1541.9735      473.28797    
  27719500   275.66404     -348.52421     -267.74561     -348.38154      0              3844.2917      46.502382      20.047001      20.857         19443.59       2748.4639      5938.2637      2846.1474      130.31235      1070.0434      129.41221    
  27720000   273.99877     -349.0003      -268.70968     -348.85203      0              3745.0699      46.409625      20.047001      20.857         19404.806      4094.5343      4757.6727      2383.0027     -225.81774     -517.73851     -1629.5002    
  27720500   268.75916     -348.13729     -269.38206     -348.01836      0              6346.7002      46.52014       20.047001      20.857         19451.015      8746.0963      4294.3591      5999.6451     -1444.2589      2036.4025     -163.11467    
  27721000   269.46316     -349.14116     -270.17962     -349.02859      0              5021.6784      46.527666      20.047001      20.857         19454.162      6700.6741      5509.8347      2854.5263      1034.5987      235.91297      831.96848    
  27721500   271.47219     -348.59452     -269.04428     -348.47075      0              7196.8685      46.181669      20.047001      20.857         19309.493      8869.59        6493.8127      6227.2028      157.82118      1604.6485      825.0938     
  27722000   271.65554     -348.35109     -268.74712     -348.21777      0              4661.7108      46.312837      20.047001      20.857         19364.337      5819.9454      2417.1342      5748.0529     -793.10265     -253.25214      2840.9685    
  27722500   269.14403     -347.76285     -268.89484     -347.67881      0              3900.4208      46.417854      20.047001      20.857         19408.247      4540.0083      1290.4306      5870.8235     -124.38514     -775.84789     -533.3636     
  27723000   269.96704     -348.39788     -269.2887      -348.32668      0              5278.3467      46.299266      20.047001      20.857         19358.663      4683.9299      7055.9553      4095.1549     -250.89154      2061.5406     -536.37849    
  27723500   265.28966     -347.96346     -270.2249      -347.86036      0              5368.1771      46.272832      20.047001      20.857         19347.611      6031.6994      4289.4019      5783.43        2348.8342      480.94296     -451.27234    
  27724000   269.04688     -351.96299     -273.12344     -351.8678       0              2886.6105      46.338267      20.047001      20.857         19374.97       2307.1255      3396.9886      2955.7172     -220.57324      1834.2998     -1063.7608    
  27724500   268.71538     -351.06901     -272.32661     -350.95303      0              4366.9459      46.263632      20.047001      20.857         19343.764      2786.0323      5296.0672      5018.7382      886.46664      542.68946      344.30992    
  27725000   271.27401     -348.75693     -269.26476     -348.62227      0              4704.7983      46.301128      20.047001      20.857         19359.441      4973.0883      5031.1972      4110.1095      1351.706       607.38716     -1995.2099    
  27725500   269.18631     -349.7943      -270.9139      -349.67597      0              5422.9763      46.488562      20.047001      20.857         19437.811      5861.0143      3368.7498      7039.1646     -386.44527      1037.6944      48.419687    
  27726000   268.61911     -348.75863     -270.04443     -348.6708       0              4911.442       46.623457      20.047001      20.857         19494.214      4964.214       6345.6013      3424.5105      982.77273      546.5118      -34.098489    
  27726500   267.27614     -348.20585     -269.88519     -348.1678       0              4101.3033      46.320802      20.047001      20.857         19367.668      4320.8145      2923.8172      5059.2783     -1245.1359      112.01219     -826.16751    
  27727000   268.55685     -348.57815     -269.8822      -348.48555      0              6722.6434      46.271722      20.047001      20.857         19347.146      7480.6925      6252.7454      6434.4924      2251.3997     -88.399783      1096.5724    
  27727500   269.43954     -349.62885     -270.67424     -349.51884      0              5318.1749      46.353079      20.047001      20.857         19381.163      5915.3951      4489.8411      5549.2884     -729.99354     -229.85605      258.10025    
  27728000   266.65201     -347.08474     -268.94697     -347.0244       0              3142.3545      46.436819      20.047001      20.857         19416.176      3019.8649      3959.8047      2447.3939      1518.4236     -1638.5042      1423.0959    
  27728500   273.54076     -349.49686     -269.34046     -349.34324      0              4875.5272      46.398222      20.047001      20.857         19400.039      6397.3942      1998.9433      6230.244      -1341.9576      778.55553      39.998553    
  27729000   267.47654     -349.40906     -271.02967     -349.284        0              4366.4129      46.398713      20.047001      20.857         19400.244      5177.3072      3697.9627      4223.9689      1187.6417     -1603.3155      433.25553    
  27729500   271.14206     -350.91153     -271.45803     -350.80171      0              4161.2566      46.325057      20.047001      20.857         19369.447      4039.3999      5316.9913      3127.3785      882.28667     -2018.2316      1939.3331    
  27730000   275.69656     -349.44514     -268.65702     -349.36915      0              4945.4437      46.417303      20.047001      20.857         19408.017      5063.116       5038.0277      4735.1874     -230.62876     -1184.9454     -85.457809    
  27730500   271.22533     -350.72801     -271.25011     -350.63893      0              5398.94        46.560577      20.047001      20.857         19467.923      3194.6701      7911.992       5090.1581      1709.4006     -773.12599      652.8727     
  27731000   265.19412     -348.29854     -270.58798     -348.23911      0              5202.5782      46.612183      20.047001      20.857         19489.5        6865.7596      3771.5832      4970.3919     -969.92533     -1285.767      -1402.3524    
  27731500   272.51609     -350.8647      -271.00856     -350.73602      0              4784.7433      46.297304      20.047001      20.857         19357.842      6452.8503      2120.7258      5780.6539      1086.014       2317.0231      2328.4495    
  27732000   276.99226     -350.26984     -269.10204     -350.16854      0              5650.8196      46.215684      20.047001      20.857         19323.716      7021.2011      6978.3378      2952.9198     -883.7527       960.63189     -822.7567     
  27732500   271.46542     -346.16499     -266.61673     -346.11617      0              4507.2577      46.462661      20.047001      20.857         19426.982      5160.1449      3108.965       5252.6631      2352.9214      651.17429     -363.93991    
  27733000   266.09839     -350.19635     -272.22081     -350.09986      0              4050.8758      46.418172      20.047001      20.857         19408.38       2828.3568      5285.827       4038.4436     -410.01625      1569.2495     -467.4322     
  27733500   270.24055     -353.14958     -273.96025     -353.03607      0              3751.6559      46.187427      20.047001      20.857         19311.901      5922.5117      2367.6818      2964.7741      116.09709     -439.29202      541.39708    
  27734000   261.36376     -352.06487     -275.47673     -351.93355      0              2721.7493      46.211964      20.047001      20.857         19322.16       4051.4483      1843.762       2270.0377     -237.49473      674.57248     -429.46428    
  27734500   263.30249     -348.99967     -271.84342     -348.92557      0              4848.5213      46.351641      20.047001      20.857         19380.562      2992.4652      6000.9377      5552.161       1042.4949     -818.07322      1023.4608    
  27735000   273.27276     -348.54291     -268.46504     -348.46305      0              4216.9342      46.150089      20.047001      20.857         19296.289      3325.644       6562.5919      2762.5667     -46.832444      1190.2136     -1291.138     
  27735500   266.23132     -349.20135     -271.18685     -349.08677      0              4164.9874      46.102824      20.047001      20.857         19276.527      5005.8521      4690.8143      2798.296      -401.40354      1535.6175      803.15827    
  27736000   274.39131     -350.68883     -270.28319     -350.56161      0              5975.6872      46.060591      20.047001      20.857         19258.868      5463.2652      5777.986       6685.8104      1052.8329      567.03503     -1213.3142    
  27736500   261.68955     -351.44808     -274.76447     -351.36034      0              5688.09        46.309483      20.047001      20.857         19362.935      5286.0575      5193.4038      6584.8086      87.548911      835.74138      236.58655    
  27737000   269.58486     -352.26723     -273.27004     -352.12312      0              3700.03        46.199929      20.047001      20.857         19317.128      3109.8067      3459.4396      4530.8438     -14.861124     -529.75887     -209.27384    
  27737500   276.40951     -353.75682     -272.75978     -353.64323      0              4459.609       46.223264      20.047001      20.857         19326.885      3196.62        5576.3304      4605.8767      1061.1964     -830.9161      -466.49458    
  27738000   270.29358     -349.79888     -270.59401     -349.76058      0              4788.2643      46.575866      20.047001      20.857         19474.315      3633.9379      6271.0314      4459.8237     -1205.1401      150.87293     -1229.8452    
  27738500   274.68993     -348.06891     -267.57576     -348.01655      0              5294.6933      46.558056      20.047001      20.857         19466.868      4495.1035      6058.654       5330.3224      1188.3809     -370.25243      353.39176    
  27739000   273.65404     -351.50517     -271.31557     -351.41297      0              7106.3648      46.211968      20.047001      20.857         19322.162      7772.2416      7538.4933      6008.3595      665.80565      457.8606       145.42729    
  27739500   267.68527     -349.21853     -270.77798     -349.09708      0              4499.5886      46.435713      20.047001      20.857         19415.714      4648.1027      4535.8635      4314.7996     -542.01187     -963.04287      910.93738    
  27740000   261.02471     -348.88399     -272.3952      -348.76304      0              5603.25        46.609381      20.047001      20.857         19488.329      7241.667       3307.8962      6260.1869      7.2037951      275.23592      1242.9089    
  27740500   274.29987     -351.30798     -270.92914     -351.22007      0              4477.4257      46.814479      20.047001      20.857         19574.084      5264.5804      5584.4972      2583.1994      1304.6387     -226.08996      1110.2572    
  27741000   276.78531     -349.56274     -268.45557     -349.4513       0              5022.275       46.666547      20.047001      20.857         19512.231      6451.1168      3354.2104      5261.4976     -683.96748      1822.4147      1434.0606    
  27741500   269.72105     -349.26128     -270.22418     -349.14264      0              2848.1902      46.427244      20.047001      20.857         19412.173      3628.3421      1118.8806      3797.348       1313.682       316.72816      468.76499    
  27742000   272.88773     -350.28609     -270.32105     -350.15213      0              6140.048       46.316057      20.047001      20.857         19365.684      6095.3653      4928.8952      7395.8835     -57.873494      1267.5439     -2.4509886    
ERROR on proc 0: Cannot open restart file restart.lmp.0: Permission denied (../write_restart.cpp:233)
Last command: run             40000000 upto
