LAMMPS (23 Jun 2022)
echo both

include		in.partitions
variable        pid world 0
include		in.temp
variable	temperature equal 270.0
variable        tempDamp equal 0.100 # this is 0.1 ps
include		in.pressure
variable        pressure equal 5066.25
variable        pressureDamp equal 1.0 #this is 1ps
include		in.seed
variable        seed world 745823

units           metal
atom_style	full
read_restart	restart.lmp.${pid}
read_restart	restart.lmp.0
Reading restart file ...
  restart file = 23 Jun 2022, LAMMPS = 23 Jun 2022
  restoring atom style full from restart
  orthogonal box = (0.35774239 0 0) to (47.092957 20.047001 20.857)
  4 by 1 by 1 MPI processor grid
Summary of lammps deepmd module ...
  >>> Info of deepmd-kit:
  installed to:       /u/sigbjobo/software/DEEPMD_FROM_SOURCE/deepmd-kit/install
  source:             v2.1.3
  source branch:       master
  source commit:      5a32c49
  source commit at:   2022-07-01 09:52:58 +0800
  surpport model ver.:1.1 
  build float prec:   double
  build with tf inc:  /u/sigbjobo/software/DEEPMD_FROM_SOURCE/tensorflow/install/include;/u/sigbjobo/software/DEEPMD_FROM_SOURCE/tensorflow/install/include
  build with tf lib:  /u/sigbjobo/software/DEEPMD_FROM_SOURCE/tensorflow/install/lib/libtensorflow_cc.so;/u/sigbjobo/software/DEEPMD_FROM_SOURCE/tensorflow/install/lib/libtensorflow_framework.so
  set tf intra_op_parallelism_threads: 0
  set tf inter_op_parallelism_threads: 0
  >>> Info of lammps module:
  use deepmd-kit at:  /u/sigbjobo/software/DEEPMD_FROM_SOURCE/deepmd-kit/install
  source:             v2.1.3
  source branch:      master
  source commit:      5a32c49
  source commit at:   2022-07-01 09:52:58 +0800
  build float prec:   double
  build with tf inc:  /u/sigbjobo/software/DEEPMD_FROM_SOURCE/tensorflow/install/include;/u/sigbjobo/software/DEEPMD_FROM_SOURCE/tensorflow/install/include
  build with tf lib:  /u/sigbjobo/software/DEEPMD_FROM_SOURCE/tensorflow/install/lib/libtensorflow_cc.so;/u/sigbjobo/software/DEEPMD_FROM_SOURCE/tensorflow/install/lib/libtensorflow_framework.so
  restoring pair style deepmd from restart
  2268 atoms
Finding 1-2 1-3 1-4 neighbors ...
  special bond factors lj:    0        0        0       
  special bond factors coul:  0        0        0       
     0 = max # of 1-2 neighbors
     0 = max # of 1-3 neighbors
     0 = max # of 1-4 neighbors
     1 = max # of special neighbors
  special bonds CPU = 0.000 seconds
  read_restart CPU = 0.005 seconds
include 	in.setup
variable	out_freq equal 500
variable	out_freq2 equal 1000
variable	out_freq3 equal 5000

timestep        0.0005

neigh_modify    delay 7 every 1

include         in.deepmd
# This is deepMD model

# create groups ###
#group ox type 2
#group hy type 1

mass 2 15.999
mass 1 1.008

pair_style      deepmd ../graph.pb
pair_coeff      * *

bond_style      none
angle_style     none
dihedral_style  none
improper_style  none
neigh_modify exclude none


neighbor        2.0 bin
neigh_modify    every 10 delay 0 check no

thermo          ${out_freq}
thermo          500
thermo_style 	custom step temp pe etotal epair emol press lx ly lz vol pxx pyy pzz pxy pxz pyz
#thermo_modify	flush yes
restart 	${out_freq} restart.lmp.${pid} restart2.lmp.${pid}
restart 	500 restart.lmp.${pid} restart2.lmp.${pid}
restart 	500 restart.lmp.0 restart2.lmp.${pid}
restart 	500 restart.lmp.0 restart2.lmp.0

include		in.dump
dump            myDump all atom ${out_freq3} dump.water.${pid}
dump            myDump all atom 5000 dump.water.${pid}
dump            myDump all atom 5000 dump.water.0
dump            myDump2 all dcd ${out_freq2} dump.dcd.${pid}
dump            myDump2 all dcd 1000 dump.dcd.${pid}
dump            myDump2 all dcd 1000 dump.dcd.0
dump_modify     myDump append yes
dump_modify     myDump2 append yes


timer           timeout 23:50:00 every 1000
New timer settings: style=normal  mode=nosync  timeout=23:50:00

fix             1 all plumed plumedfile plumed.dat outfile plumed.out
fix             3 all nph x ${pressure} ${pressure} ${pressureDamp}
fix             3 all nph x 5066.25 ${pressure} ${pressureDamp}
fix             3 all nph x 5066.25 5066.25 ${pressureDamp}
fix             3 all nph x 5066.25 5066.25 1
Resetting global fix info from restart file:
  fix style: nph, fix ID: 3
fix             4 all temp/csvr ${temperature} ${temperature} ${tempDamp} ${seed}
fix             4 all temp/csvr 270 ${temperature} ${tempDamp} ${seed}
fix             4 all temp/csvr 270 270 ${tempDamp} ${seed}
fix             4 all temp/csvr 270 270 0.1 ${seed}
fix             4 all temp/csvr 270 270 0.1 745823
Resetting global fix info from restart file:
  fix style: temp/csvr, fix ID: 4

run             40000000 upto

CITE-CITE-CITE-CITE-CITE-CITE-CITE-CITE-CITE-CITE-CITE-CITE-CITE

Your simulation uses code contributions which should be cited:

- USER-DEEPMD package:

@article{Wang_ComputPhysCommun_2018_v228_p178,
  author = {Wang, Han and Zhang, Linfeng and Han, Jiequn and E, Weinan},
  doi = {10.1016/j.cpc.2018.03.016},
  url = {https://doi.org/10.1016/j.cpc.2018.03.016},
  year = 2018,
  month = {jul},
  publisher = {Elsevier {BV}},
  volume = 228,
  journal = {Comput. Phys. Commun.},
  title = {{DeePMD-kit: A deep learning package for many-body potential energy representation and molecular dynamics}},
  pages = {178--184}
}

CITE-CITE-CITE-CITE-CITE-CITE-CITE-CITE-CITE-CITE-CITE-CITE-CITE

Generated 0 of 1 mixed pair_coeff terms from geometric mixing rule
All restart file global fix info was re-assigned
Neighbor list info ...
  update every 10 steps, delay 0 steps, check no
  max neighbors/atom: 2000, page size: 100000
  master list distance cutoff = 8
  ghost atom cutoff = 8
  binsize = 4, bins = 12 6 6
  1 neighbor lists, perpetual/occasional/extra = 1 0 0
  (1) pair deepmd, perpetual
      attributes: full, newton on
      pair build: full/bin
      stencil: full/bin/3d
      bin: standard
Per MPI rank memory allocation (min/avg/max) = 6.187 | 6.19 | 6.194 Mbytes
   Step          Temp          PotEng         TotEng         E_pair         E_mol          Press            Lx             Ly             Lz           Volume          Pxx            Pyy            Pzz            Pxy            Pxz            Pyz      
  24544000   268.91818     -349.06517     -270.26334     -349.06517      0              3916.628       46.735214      20.047001      20.857         19540.942      2454.9059      4290.2715      5004.7066      649.02916     -267.50847      696.44572    
  24544500   268.68221     -347.92441     -269.19172     -347.74822      0              5102.7475      46.149694      20.047001      20.857         19296.124      6039.71        3714.7607      5553.7718     -1284.0377     -491.99887     -1255.5817    
  24545000   283.75733     -351.97152     -268.82133     -351.80125      0              5727.4999      46.16414       20.047001      20.857         19302.164      6080.9442      4281.4085      6820.1468     -169.04735      1250.0084     -398.72091    
  24545500   269.78435     -351.99067     -272.93502     -351.8067       0              4348.3725      46.63779       20.047001      20.857         19500.207      4431.2651      3597.9208      5015.9316      715.58415      3378.2846      485.10983    
  24546000   270.93152     -351.77937     -272.38756     -351.60087      0              3288.4197      46.717853      20.047001      20.857         19533.683      4108.8532      3521.0886      2235.3173      1256.8969      359.39879      1858.2       
  24546500   270.66852     -348.59498     -269.28024     -348.46521      0              4660.0665      46.210311      20.047001      20.857         19321.469      2812.9831      6263.0875      4904.1288      612.08401      1320.1633      1646.0338    
  24547000   267.88191     -353.11205     -274.61388     -352.94066      0              4815.0979      46.259174      20.047001      20.857         19341.9        5912.6861      4031.2565      4501.351      -697.51111      431.27973     -58.450103    
  24547500   269.99311     -352.18534     -273.06851     -352.00059      0              6943.9032      46.256291      20.047001      20.857         19340.694      7230.9835      7366.8198      6233.9063      6.7663535     -188.52636      330.72971    
  24548000   273.77257     -352.68634     -272.46202     -352.54711      0              4518.6637      46.29047       20.047001      20.857         19354.985      3712.3888      6920.3276      2923.2745     -353.5286      -1199.1184      525.91668    
  24548500   264.43515     -351.0969      -273.60874     -350.92886      0              4265.2169      46.237962      20.047001      20.857         19333.031      6672.7726      1832.3312      4290.547       808.73261      725.11699     -377.0012     
  24549000   265.56116     -349.21983     -271.40171     -349.10291      0              4292.9693      46.16522       20.047001      20.857         19302.615      6069.7442      2525.7968      4283.3668     -75.320419      256.01365     -967.00972    
  24549500   275.20227     -349.30841     -268.66513     -349.1578       0              4188.4341      46.133192      20.047001      20.857         19289.224      5950.3529      3407.2588      3207.6908     -175.53361      149.83949     -147.85846    
  24550000   274.46475     -349.5515      -269.12434     -349.3681       0              3774.6292      46.080222      20.047001      20.857         19267.076      4632.435       2560.8631      4130.5895      255.59647      389.46648     -2086.9574    
  24550500   264.44465     -347.39038     -269.89944     -347.29451      0              4801.2158      45.965925      20.047001      20.857         19219.286      5594.2143      6306.4958      2502.9372      908.7786       938.94136     -1651.0546    
  24551000   267.3647      -350.157       -271.81039     -350.0105       0              2147.5526      46.067297      20.047001      20.857         19261.672      4276.3729      1230.6809      935.6038       726.71019      250.78181     -1069.2139    
  24551500   269.0125      -351.24393     -272.41445     -351.10006      0              2611.8145      45.976404      20.047001      20.857         19223.668      2067.4824      3000.4319      2767.5291      436.29023      691.16647     -375.31877    
  24552000   278.51836     -351.70339     -270.08839     -351.5394       0              2168.0283      45.959734      20.047001      20.857         19216.698      1773.1435      2744.5416      1986.3999     -637.58148     -864.28892      879.57521    
  24552500   269.13895     -350.46414     -271.59761     -350.32582      0              4530.2409      46.074644      20.047001      20.857         19264.744      5163.1548      3488.9525      4938.6155      1385.3575      1992.7177     -339.01793    
  24553000   266.6575      -350.43879     -272.29941     -350.269        0              2651.2721      45.962674      20.047001      20.857         19217.927      3075.5787      2751.6645      2126.573      -696.86994     -1383.2373     -2560.0135    
  24553500   266.72168     -347.5002      -269.34201     -347.37921      0              4781.4982      45.934972      20.047001      20.857         19206.344      5074.2452      7075.6581      2194.5914     -1198.1759      327.66396     -138.64875    
  24554000   270.6526      -348.09175     -268.78167     -347.93137      0              4724.9576      46.058907      20.047001      20.857         19258.164      5862.6294      4462.835       3849.4084     -710.1871      -528.57028     -491.07749    
  24554500   270.3351      -349.45701     -270.23997     -349.32827      0              3350.3918      46.233623      20.047001      20.857         19331.216      2245.9766      4814.1896      2991.0091      201.23643      1605.001       879.0812     
  24555000   274.26787     -350.13806     -269.76859     -349.95814      0              3286.5         46.05686       20.047001      20.857         19257.308      939.21603      5487.317       3432.9671      102.27399      220.96723     -703.10215    
  24555500   276.02744     -349.70973     -268.82465     -349.54919      0              4654.7417      45.955662      20.047001      20.857         19214.995      6774.8752      3607.3458      3582.0042      1873.9919     -3512.3729      638.24037    
  24556000   264.94663     -350.17807     -272.54003     -350.02583      0              4154.5674      45.938639      20.047001      20.857         19207.878      6525.4287      3219.1674      2719.1061      1882.9813     -434.50106     -1641.4392    
  24556500   265.97594     -349.88259     -271.94293     -349.70929      0              7043.8079      45.915709      20.047001      20.857         19198.29       8678.0441      6551.117       5902.2627      414.06069     -2802.2168      1437.4385    
  24557000   271.91883     -346.78552     -267.1044      -346.6589       0              4403.6656      46.101449      20.047001      20.857         19275.951      2765.4248      5961.5968      4483.9751     -246.61449     -641.7958       420.90866    
  24557500   274.92474     -349.06387     -268.50192     -348.91618      0              4315.5558      46.026408      20.047001      20.857         19244.576      4445.443       3177.5543      5323.6699     -458.20772     -1324.5383     -268.78928    
  24558000   269.18697     -349.41207     -270.53147     -349.28331      0              3996.1135      46.150628      20.047001      20.857         19296.514      5269.8125      6289.882       428.64604      1017.2577      930.96055      99.631967    
  24558500   270.81497     -347.9497      -268.59204     -347.78769      0              2964.8645      46.195239      20.047001      20.857         19315.167      3542.8332      2500.9519      2850.8085      555.79408      786.77886     -1396.627     
  24559000   270.19261     -349.19        -270.01472     -349.03553      0              4239.9382      46.197207      20.047001      20.857         19315.99       4427.0209      3566.2905      4726.5032      1285.9837     -1166.0926     -1157.4134    
  24559500   273.77189     -348.80703     -268.5829      -348.67912      0              3473.9595      46.253867      20.047001      20.857         19339.681      4166.8644      3196.2339      3058.7802     -144.78725     -298.84578     -222.4844     
  24560000   272.82553     -349.08108     -269.13426     -348.93588      0              4994.7532      46.384119      20.047001      20.857         19394.142      5719.7641      6006.3421      3258.1533      1708.229       285.46085     -1406.0713    
  24560500   282.74876     -348.49845     -265.6438      -348.35076      0              2330.4793      46.539193      20.047001      20.857         19458.981      4954.3204      696.28792      1340.8295      1120.9059     -577.38128      1153.6141    
  24561000   275.01365     -348.70437     -268.11637     -348.54695      0              4304.9354      46.527267      20.047001      20.857         19453.995      3827.6078      3849.8368      5237.3617      408.31753      2089.2353     -1732.477     
  24561500   265.67391     -349.83885     -271.98769     -349.73614      0              6369.0569      46.224175      20.047001      20.857         19327.266      7275.2288      5666.3708      6165.5709     -25.570439      158.89701      422.45152    
  24562000   269.06075     -350.28269     -271.43908     -350.13678      0              6221.1874      46.182608      20.047001      20.857         19309.886      8026.0136      3267.0762      7370.4724      2096.0603      192.58199     -1176.8255    
  24562500   258.87287     -348.162       -272.30377     -348.03007      0              3813.7986      46.529055      20.047001      20.857         19454.743      3885.1523      2709.8915      4846.3521      385.23814      159.19053     -1741.5961    
  24563000   257.32719     -349.27749     -273.8722      -349.13637      0              4334.2903      46.477217      20.047001      20.857         19433.068      4146.2224      4715.1713      4141.4773      752.71922      725.21461      459.75595    
  24563500   258.66235     -349.95078     -274.15424     -349.77436      0              4870.1464      46.202067      20.047001      20.857         19318.022      5242.5899      4116.9744      5250.8748     -216.83598     -607.44568     -790.88599    
  24564000   274.04444     -349.16053     -268.85653     -349.05855      0              5816.0432      46.016259      20.047001      20.857         19240.332      5642.5455      5172.1482      6633.4358      90.948563     -1176.2407     -1086.0265    
  24564500   267.26096     -348.32069     -270.00448     -348.1642       0              2207.7874      46.297097      20.047001      20.857         19357.756      2678.1106      3527.6425      417.60895     -871.87882     -891.30602      682.98614    
  24565000   266.56904     -349.84107     -271.72761     -349.72075      0              4171.6118      46.471194      20.047001      20.857         19430.55       6939.6969      3207.3174      2367.8211      239.23         424.9746       1817.1042    
  24565500   268.72848     -348.85109     -270.10484     -348.74927      0              3986.5956      46.499512      20.047001      20.857         19442.39       4800.0063      3187.1446      3972.6358      470.6523      -1123.1996     -970.22548    
  24566000   273.37903     -347.5209      -267.41189     -347.38558      0              5337.3419      46.437815      20.047001      20.857         19416.593      7653.9349      4269.6161      4088.4748     -1081.7866     -85.925957     -1649.6214    
  24566500   270.61971     -349.3763      -270.07586     -349.24811      0              4808.0957      46.619869      20.047001      20.857         19492.714      4966.4231      4424.5504      5033.3137     -1378.1459     -398.75423      1258.8426    
  24567000   272.33016     -350.61106     -270.8094      -350.48545      0              3817.2658      46.451329      20.047001      20.857         19422.244      4196.0672      3203.4823      4052.2481      593.37156     -605.282       -376.20777    
  24567500   263.36619     -350.3147      -273.13978     -350.13003      0              4432.169       45.97288       20.047001      20.857         19222.194      4858.4056      3993.0518      4445.0498      852.48189     -119.00065     -445.1018     
  24568000   272.17917     -349.50147     -269.74406     -349.32544      0              6635.2957      46.088792      20.047001      20.857         19270.66       5672.0286      6002.7752      8231.0833      604.68313      10.366968     -751.86208    
  24568500   270.46422     -350.34359     -271.08871     -350.25783      0              3852.3247      46.814104      20.047001      20.857         19573.927      3773.8484      3540.557       4242.5688     -34.827468      588.7804      -1802.5173    
  24569000   273.69208     -350.03707     -269.83633     -349.90019      0              3426.9392      46.653478      20.047001      20.857         19506.766      3503.1022      4662.7866      2114.9288     -303.72535     -789.61744     -548.06262    
  24569500   263.88558     -353.00198     -275.67486     -352.86827      0              4583.3076      46.360334      20.047001      20.857         19384.197      6948.8499      2004.1234      4796.9496      274.54436     -497.56083     -884.90507    
  24570000   268.60291     -350.3441      -271.63466     -350.20859      0              4657.3927      46.323715      20.047001      20.857         19368.885      6941.1066      4355.6278      2675.4435      744.70535      1389.9942      1155.2876    
  24570500   267.67567     -349.74476     -271.30703     -349.56586      0              3653.7003      46.545446      20.047001      20.857         19461.596      2733.2683      4690.4908      3537.3417     -785.59192     -181.21805      1127.1878    
  24571000   264.87128     -352.19236     -274.57641     -352.05013      0              4554.8227      46.423092      20.047001      20.857         19410.437      4413.6301      6387.0865      2863.7515      1857.1589     -49.575967      1829.007     
  24571500   269.73789     -351.27912     -272.23708     -351.12323      0              2773.2945      46.23658       20.047001      20.857         19332.453      4982.6385      686.30054      2650.9446     -562.74967     -39.443268     -531.70432    
  24572000   271.03646     -350.18616     -270.7636      -350.05363      0              4137.0009      46.125352      20.047001      20.857         19285.946      6362.5972      2618.0994      3430.3062     -95.038486     -19.494809      221.32342    
  24572500   268.05207     -350.29368     -271.74565     -350.13609      0              6369.6667      45.992178      20.047001      20.857         19230.263      8632.0077      5195.7202      5281.2723     -38.25638       1503.8442      813.90891    
  24573000   264.77919     -349.72922     -272.14025     -349.58176      0              5562.4326      46.223217      20.047001      20.857         19326.865      5938.3771      7275.8176      3473.103      -193.45579     -9.4041775     -222.67916    
  24573500   265.98617     -349.6928      -271.75014     -349.51574      0              7245.2925      46.435222      20.047001      20.857         19415.509      10698.45       3877.6677      7159.7594      1171.7123      854.7787       338.75205    
  24574000   263.85624     -351.15652     -273.838       -351.03339      0              5132.1637      46.438052      20.047001      20.857         19416.692      4557.9106      4511.3942      6327.1864     -66.91531      -805.03647     -317.03838    
  24574500   262.81762     -352.49395     -275.47978     -352.34835      0              4295.0779      46.295672      20.047001      20.857         19357.16       5006.7109      3888.8033      3989.7195     -822.40007      1494.2055      1908.4096    
  24575000   261.97292     -351.02404     -274.2574      -350.8558       0              5899.2796      46.142713      20.047001      20.857         19293.205      5762.4636      5579.1847      6356.1904      698.44654     -2111.5415      1502.0498    
  24575500   269.38267     -349.14244     -270.20449     -349.00752      0              5689.0769      46.112194      20.047001      20.857         19280.445      5370.1037      6554.4953      5142.6319      153.22657      154.51485     -384.86012    
  24576000   266.70145     -347.48852     -269.33626     -347.32011      0              3416.9953      46.127122      20.047001      20.857         19286.686      4337.878       3144.7449      2768.363       618.872       -109.5342       698.37075    
  24576500   273.20082     -348.66095     -268.60416     -348.47653      0              5020.3163      46.170791      20.047001      20.857         19304.945      4866.4661      3276.1641      6918.3188     -1032.3733      992.1037      -1799.3063    
  24577000   273.43258     -348.48304     -268.35834     -348.35245      0              4335.3917      46.607087      20.047001      20.857         19487.369      5276.654       5650.7397      2078.7814      739.15573     -2207.8903      1214.4439    
  24577500   268.21297     -349.44535     -270.85016     -349.36053      0              3771.0595      46.795874      20.047001      20.857         19566.305      5295.888       2321.3204      3695.9701     -1788.2496     -665.18802     -81.163363    
  24578000   265.94079     -348.54318     -270.61382     -348.40935      0              5520.6659      46.315782      20.047001      20.857         19365.569      4697.7143      7291.0042      4573.2792     -93.634288      1818.6283     -8.4144043    
  24578500   268.31907     -349.6917      -271.06542     -349.56754      0              6715.5329      46.102813      20.047001      20.857         19276.522      8940.0827      4024.4769      7182.0391     -1234.8693      527.51713     -856.57115    
  24579000   275.45634     -352.90632     -272.18859     -352.72496      0              3003.5966      46.587918      20.047001      20.857         19479.354      4477.1381      1788.2482      2745.4035     -366.21812      1926.7465      369.8642     
  24579500   270.66045     -350.24198     -270.9296      -350.10283      0              5871.5686      46.654207      20.047001      20.857         19507.071      5956.4731      5161.8952      6496.3376     -109.79158      361.83678     -973.38824    
  24580000   263.00456     -352.29546     -275.22651     -352.14531      0              3900.0422      46.450454      20.047001      20.857         19421.878      3463.9048      4389.2737      3846.9481      1413.3456      454.53123     -844.06413    
  24580500   268.61355     -353.58199     -274.86943     -353.43348      0              6917.4768      46.262724      20.047001      20.857         19343.384      8207.3981      7775.8905      4769.1419     -497.57802     -469.02076      327.53802    
  24581000   271.14654     -348.98401     -269.52919     -348.81943      0              5625.9886      46.457673      20.047001      20.857         19424.896      7036.7636      3108.2255      6732.9768      1018.7516     -618.02782      282.47724    
  24581500   269.96698     -350.3366      -271.22744     -350.16309      0              3688.8078      46.603086      20.047001      20.857         19485.696      4635.1988      4693.3119      1737.9128      271.23172      163.59526      1461.454     
  24582000   272.89744     -349.85833     -269.89044     -349.71864      0              5347.2558      46.498984      20.047001      20.857         19442.169      6675.0268      6333.1545      3033.586      -1685.6474     -600.99624     -653.76636    
  24582500   270.8868      -351.33217     -271.95347     -351.18336      0              6285.7978      46.426967      20.047001      20.857         19412.057      8458.8947      4255.0459      6143.4529     -894.35436      2635.8519      288.57108    
  24583000   265.79792     -349.67865     -271.79115     -349.54202      0              1918.673       46.478445      20.047001      20.857         19433.581      2034.5327      2341.9777      1379.5086     -358.3292      -817.13116     -1740.2004    
  24583500   272.63392     -353.39051     -273.49985     -353.20571      0              4682.3482      46.54435       20.047001      20.857         19461.137      4480.1231      6386.6721      3180.2494      497.81629     -1339.4934      546.83741    
  24584000   263.69507     -353.94602     -276.67473     -353.78061      0              5259.0401      46.426285      20.047001      20.857         19411.772      3253.2838      5873.9721      6649.8644      1171.7704     -985.64474     -345.51925    
  24584500   269.95575     -350.27801     -271.17213     -350.09696      0              4014.3881      46.26556       20.047001      20.857         19344.57       7039.7281      1457.5949      3545.8414      55.93255       43.778746      514.14646    
  24585000   272.73115     -352.36277     -272.44361     -352.19148      0              6112.9115      46.612111      20.047001      20.857         19489.47       6231.317       7585.396       4522.0214     -281.57806     -900.0071      -1479.733     
  24585500   269.19589     -350.00154     -271.11833     -349.83731      0              4805.1459      46.664695      20.047001      20.857         19511.456      7100.986       2712.8275      4601.6244     -47.010182      321.08207     -551.21943    
  24586000   263.55696     -347.10984     -269.87902     -346.93474      0              2787.3129      46.351764      20.047001      20.857         19380.613      3881.5025      826.039        3654.3972     -613.34155      1511.2102      2154.7855    
  24586500   269.49198     -352.62572     -273.65574     -352.44248      0              5728.185       46.152068      20.047001      20.857         19297.117      7842.7316      6080.2995      3261.5239      749.26831      94.171757      121.04343    
  24587000   270.65161     -348.8694      -269.55962     -348.70027      0              3710.9598      46.332074      20.047001      20.857         19372.381      4781.8968      1191.985       5158.9974      553.77775     -645.81795     -581.6698     
  24587500   271.09998     -350.37264     -270.93146     -350.20657      0              2518.1924      46.568164      20.047001      20.857         19471.095      3382.5267      2439.5229      1732.5277      325.78824     -1343.8078      116.707      
  24588000   275.36261     -354.11653     -273.42626     -353.93176      0              4095.3694      46.531307      20.047001      20.857         19455.684      4392.3953      3686.2802      4207.4327     -303.76552      472.53449     -675.42534    
  24588500   272.35146     -349.68566     -269.87776     -349.52786      0              4492.0914      46.215584      20.047001      20.857         19323.674      5027.1488      4001.4792      4447.6461      1268.3053      150.96968      1715.2576    
  24589000   267.47913     -351.58438     -273.20424     -351.40296      0              4887.1787      46.188706      20.047001      20.857         19312.435      6582.6606      4875.7656      3203.11       -2026.4967     -1651.1157     -202.49262    
  24589500   263.29124     -350.53223     -273.37927     -350.43634      0              5003.6966      46.595322      20.047001      20.857         19482.45       4460.6623      6146.6362      4403.7911      926.16989     -153.71019     -613.99847    
  24590000   272.88629     -349.9856      -270.02098     -349.82338      0              6770.877       46.632195      20.047001      20.857         19497.867      7171.6988      7080.3136      6060.6186      758.20255     -1501.5384     -1527.8679    
  24590500   267.7559      -350.30694     -271.84569     -350.13369      0              2497.9567      46.456966      20.047001      20.857         19424.601      3447.702       4340.2896     -294.12154      377.3154      -310.25491      200.17211    
  24591000   263.74187     -350.63436     -273.34935     -350.45281      0              6942.7313      46.322207      20.047001      20.857         19368.255      9752.0035      5250.2657      5825.9246     -2537.8259     -8.6646448     -958.77427    
  24591500   272.92311     -351.06742     -271.09201     -350.88935      0              4875.8891      46.286295      20.047001      20.857         19353.239      5353.3168      4725.6839      4548.6666      1088.8817     -1074.3475     -175.62236    
  24592000   266.07673     -349.45504     -271.48584     -349.27244      0              3886.8219      46.364659      20.047001      20.857         19386.005      7452.9064      472.53021      3735.0291     -198.7641      -439.50496      2741.82      
  24592500   267.97046     -351.09746     -272.57334     -350.91733      0              6945.0893      46.528896      20.047001      20.857         19454.676      7043.5741      5707.2826      8084.4113      1462.8699     -970.56402      271.05073    
  24593000   270.72344     -352.47386     -273.14303     -352.28936      0              3452.2764      46.241203      20.047001      20.857         19334.386      3243.1687      3672.0286      3441.6319     -986.25807     -139.16141      1189.6481    
  24593500   268.00678     -349.90441     -271.36965     -349.73778      0              6564.6786      46.059026      20.047001      20.857         19258.214      6832.0443      5261.3621      7600.6294      2090.5115      2258.8071     -3156.843     
  24594000   258.86746     -351.86821     -276.01156     -351.68349      0              5095.8218      46.291533      20.047001      20.857         19355.43       4225.0898      5744.5526      5317.8229      351.58662      946.32617      1010.7784    
  24594500   268.06329     -351.73542     -273.18409     -351.57493      0              5923.3545      46.322997      20.047001      20.857         19368.585      8140.9692      3124.1379      6504.9563     -799.13282      292.51076     -306.0336     
ERROR on proc 0: Cannot open restart file restart2.lmp.0: Permission denied (../write_restart.cpp:233)
Last command: run             40000000 upto
