LAMMPS data file via write_data, version 23 Jun 2022, timestep = 3757000

2268 atoms
2 atom types

0.5442804216304893 46.906418578373 xlo xhi
0 20.047001 ylo yhi
0 20.857 zlo zhi

Masses

1 1.008
2 15.999

Atoms # full

601 0 1 -1.1794 4.840921713135282 2.570965736958614 1.2482832568273807 0 1 1
603 0 2 0.5897 4.704563054472416 1.6909621842738658 0.9502292405715214 0 1 1
602 0 2 0.5897 4.662025187640854 2.589629861332065 2.17525986868325 0 1 1
1824 0 2 0.5897 5.610680045411564 0.5583999350676428 3.2861458452687606 0 0 -1
1362 0 2 0.5897 3.0665952913907333 3.487721892934911 0.3326689487503849 0 -2 0
2030 0 2 0.5897 2.912439386420436 2.658221783849238 3.645113813034255 0 0 0
2029 0 1 -1.1794 3.7783001642202683 3.055446393916583 3.8589378182308023 0 0 0
1522 0 1 -1.1794 0.8748411963252278 2.273534823139729 3.35458741986308 0 -1 0
1524 0 2 0.5897 0.799691008339873 1.973465519251809 2.451277025303176 0 -1 0
287 0 2 0.5897 1.320628884809961 0.9577157461795265 0.226763897279216 0 -1 1
1088 0 2 0.5897 5.930488195922403 3.676625096640502 0.022375682133535107 0 -2 0
1523 0 2 0.5897 0.6761004743054921 1.5034108280539598 3.8790669563394684 0 -1 0
286 0 1 -1.1794 0.5791736480587772 1.0147535515109674 0.8251639067461899 0 -1 1
1822 0 1 -1.1794 6.4539463577945195 1.0198060513000322 3.4252045571738 0 0 -1
1823 0 2 0.5897 6.728804944362172 1.2235746713441484 2.5229893996503194 0 0 -1
1049 0 2 0.5897 8.480468919026197 2.547287929497911 1.796461619079999 0 1 1
2134 0 1 -1.1794 11.116283056161672 1.1185595058543438 3.2875938988499316 0 -1 0
2135 0 2 0.5897 11.061847965639434 1.9086425314366036 3.851053067863131 0 -1 0
2136 0 2 0.5897 11.575525674096166 0.46881590344130575 3.7625566617536936 0 -1 0
789 0 2 0.5897 9.656490962429208 0.8898685156214506 2.2238180413637956 0 -1 1
787 0 1 -1.1794 8.840140831413805 0.6832558562671063 1.7255242926790417 0 -1 1
1048 0 1 -1.1794 8.273258015590331 3.476581092090052 1.9066481752468636 0 1 1
327 0 2 0.5897 11.973505290794025 2.501366749635735 0.8987773934539837 0 0 -1
326 0 2 0.5897 11.940627023593633 0.9912376595511421 1.0898757628387157 0 0 -1
325 0 1 -1.1794 12.118555401044148 1.6670425082927065 0.4327415717574689 0 0 -1
354 0 2 0.5897 3.4620053243989792 5.132218656257781 2.8586093329674007 0 0 -1
352 0 1 -1.1794 3.651893179015158 6.092073666543739 2.9411394624823197 0 0 -1
230 0 2 0.5897 1.1146886393060425 6.757282350484649 1.6599283806521898 1 0 0
1361 0 2 0.5897 1.9645898728562734 4.6208534148388765 0.47116810553307575 0 -2 0
573 0 2 0.5897 5.4069562369712525 5.355691384314142 2.3435456935784105 0 -1 1
571 0 1 -1.1794 6.28370776966381 5.549671397003721 1.8956778041815185 0 -1 1
17 0 2 0.5897 4.307468288322916 7.893469526615081 1.5280189595808962 0 -2 -1
229 0 1 -1.1794 0.7749622643027559 5.92869131459319 1.358817123834243 1 0 0
353 0 2 0.5897 3.5505463144792224 6.254801902284114 3.907564712514629 0 0 -1
572 0 2 0.5897 6.794209387261889 4.705102975418228 2.05894340005575 0 -1 1
308 0 2 0.5897 6.897271637886892 7.082129692366405 3.097883259980857 0 -1 2
1050 0 2 0.5897 8.728023360448706 4.0685117836627676 1.3577430408262825 0 1 1
1303 0 1 -1.1794 11.763941121135009 4.092281241044193 1.523282807842006 0 1 0
1304 0 2 0.5897 11.237819111433264 4.765089237032476 1.1340149977060825 0 1 0
1858 0 1 -1.1794 9.645909211656258 5.525456014681478 0.29651367255910444 0 0 0
26 0 2 0.5897 9.919350870980832 6.687538389915828 3.137018714423226 0 0 0
1859 0 2 0.5897 9.240922528623344 6.399573511256759 0.32664984902559874 0 0 0
25 0 1 -1.1794 10.449998297288134 7.428871927245703 2.898553083902917 0 0 0
27 0 2 0.5897 10.772410577077201 7.758386995395516 3.760476004888993 0 0 0
307 0 1 -1.1794 6.790768788254593 8.001423391823288 3.41505650785692 0 -1 2
1818 0 2 0.5897 11.442393518898996 7.622850812561673 0.2075731498114287 0 1 1
253 0 1 -1.1794 1.6072245273041201 8.170820270249374 2.5931845470664667 0 0 0
16 0 1 -1.1794 4.794581886137733 8.496608681658095 0.9301099079000436 0 -2 -1
255 0 2 0.5897 2.567236635968904 8.101775452339046 2.8119995273178247 0 0 0
1773 0 2 0.5897 4.457166310591521 10.038700477461697 3.5235847160088705 0 -1 1
70 0 1 -1.1794 0.9982793094486233 9.947343050554357 0.5280357602806021 0 1 0
71 0 2 0.5897 1.2349820257694537 10.874685383652613 0.7099108000971915 0 1 0
254 0 2 0.5897 1.551739583962207 8.94928089207549 1.9641087759542744 0 0 0
1771 0 1 -1.1794 4.043701227801858 9.207119626636958 3.7869531507380634 0 -1 1
1772 0 2 0.5897 4.736992951388873 8.56202383548458 3.6324888265472675 0 -1 1
844 0 1 -1.1794 4.764971377002392 11.801376632516547 2.6648424728119053 0 1 -1
2048 0 2 0.5897 2.5972801953868934 11.418637952642758 3.581331421520733 0 -1 0
2054 0 2 0.5897 6.059752170225727 9.797174555907562 0.8464828771312225 0 -1 0
18 0 2 0.5897 4.123523873688846 8.692198334127182 0.24012378158304742 0 -2 -1
1770 0 2 0.5897 11.946802024171491 10.739468783131935 3.703724377556853 0 -1 0
2053 0 1 -1.1794 6.906058122158343 10.201436686952587 0.6558496210907033 0 -1 0
2055 0 2 0.5897 7.57249224074956 9.51763140277894 0.8376363465217344 0 -1 -1
1259 0 2 0.5897 9.290543762203166 8.37494315207847 1.8046082448732472 1 0 1
1258 0 1 -1.1794 8.877666445855251 8.443355574570747 0.9348933097840693 1 0 1
1260 0 2 0.5897 9.50303264195851 8.895908092627122 0.3644415102607475 1 0 1
1032 0 2 0.5897 7.541205913947748 11.827480601946974 1.281871019462577 0 1 1
2141 0 2 0.5897 7.662754917568847 9.670053704944094 3.5656729896614214 0 1 1
2140 0 1 -1.1794 8.137880065249297 10.414348408450996 3.9530175557961362 0 1 1
1817 0 2 0.5897 11.73799242904027 8.344595884640093 1.4921795682466696 0 1 1
1816 0 1 -1.1794 12.02958394991251 8.290173919856167 0.5754535637273559 0 1 1
846 0 2 0.5897 4.33297100669125 12.097111692420201 1.8453730534522477 0 1 -1
845 0 2 0.5897 5.265003506835393 12.551980843531615 3.0598843606449844 0 1 -1
1057 0 1 -1.1794 3.958106491617186 13.394104903284486 0.31700414064587384 0 2 0
1058 0 2 0.5897 4.214824771239346 14.173629378270801 0.8973562630584584 0 2 0
817 0 1 -1.1794 1.406889540270729 12.633140740840872 1.231168917002579 0 1 -1
510 0 2 0.5897 2.6754694372357095 13.662270883523478 3.718215833826261 0 -1 0
508 0 1 -1.1794 2.8648759956086356 14.55227589480503 3.5498383877088955 0 -1 0
806 0 2 0.5897 5.594809048875097 15.688029386156847 1.2132602608522973 0 0 0
805 0 1 -1.1794 4.681698718071149 15.684687131627772 1.3992730915996732 0 0 0
509 0 2 0.5897 3.8347175256212997 14.608794834800987 3.785317562941034 0 -1 0
756 0 2 0.5897 1.8253257496368969 15.250076559377293 2.019411759660364 1 0 1
818 0 2 0.5897 2.132789750675016 13.05345036275087 0.831019663972485 0 1 -1
289 0 1 -1.1794 5.877710007642 14.109145104729134 4.085604020167135 0 0 0
754 0 1 -1.1794 1.3330342252073009 15.807680127920971 1.3743140150740238 1 0 0
819 0 2 0.5897 0.5938926223234609 12.806304500714457 0.7098175691067193 0 1 -1
290 0 2 0.5897 6.524781070454853 14.635047747489736 3.6402632520194613 0 0 0
1030 0 1 -1.1794 7.851135318819864 12.752717657371711 1.3793082392115346 0 0 1
524 0 2 0.5897 8.854280209808579 13.378412868133498 2.5240366093873403 0 1 0
523 0 1 -1.1794 9.559388967230499 13.90181377418542 2.94816995631878 0 1 0
1827 0 2 0.5897 10.622607226246423 15.179471026573236 2.1439920316002348 0 0 1
1031 0 2 0.5897 7.30225479290604 13.329054955658084 0.8120026574548272 0 0 1
522 0 2 0.5897 8.500915826492035 15.334802736918533 3.0319859612386337 0 0 1
520 0 1 -1.1794 7.754848118053072 15.961643403536463 3.0698447684672163 0 0 1
525 0 2 0.5897 10.03114344446483 13.256211246993399 3.5317293038681115 0 1 0
2246 0 2 0.5897 11.76322840526119 12.328320514057994 1.0007832781651882 1 0 1
1338 0 2 0.5897 9.315490339736984 12.724464148893567 0.45139301028201523 0 0 0
807 0 2 0.5897 4.561396611715014 16.132772377802254 2.265540090835028 0 0 0
1394 0 2 0.5897 0.8309059047888671 19.152831536932204 1.353190270268681 0 0 1
1578 0 2 0.5897 3.1896950873372862 19.167795127805533 2.649588037137448 0 0 0
1083 0 2 0.5897 4.076370036306963 17.216632971345874 0.7582406035381901 0 -1 0
1856 0 2 0.5897 4.977461368125559 19.384130669753354 0.6615247625522872 0 -1 0
267 0 2 0.5897 4.394768914640624 17.83468072368799 3.8258555762725304 0 -1 0
1082 0 2 0.5897 2.8680708061062656 18.287135934733737 0.6997773665332397 0 -1 0
265 0 1 -1.1794 4.591144060804442 16.888219632220846 3.8953885178028753 0 -1 0
1855 0 1 -1.1794 5.850183476560806 19.75715250301824 0.6540817119784974 0 -1 0
1393 0 1 -1.1794 1.5563130772654898 18.627354327537343 1.7770663864242224 0 0 1
1576 0 1 -1.1794 3.821639943910861 19.475277628160807 3.2890035333539913 0 0 0
1395 0 2 0.5897 1.298342281271926 17.688660899471394 1.7198528758541352 0 0 1
1577 0 2 0.5897 3.288253778218545 19.846311723777305 3.9853371116863445 0 0 0
1081 0 1 -1.1794 3.779037214920251 18.136124806100216 0.3748881082346119 0 -1 0
521 0 2 0.5897 7.521540661004352 16.265034039660534 3.960276248107031 0 0 1
1825 0 1 -1.1794 10.82485446936156 16.108117560981484 1.889823731474582 0 0 1
786 0 2 0.5897 10.245982273581726 16.44046136941955 0.28770026666911946 0 -2 1
1857 0 2 0.5897 6.492974107549607 19.011638242057376 0.5929116312309646 0 -1 0
788 0 2 0.5897 8.463821035562475 19.883373483262666 1.9095260730522492 1 -2 1
1529 0 2 0.5897 10.120729588009597 17.63871177474075 3.0718137492797903 0 -2 0
380 0 2 0.5897 7.661960520846139 17.76963843968672 2.1038650179469913 0 0 -1
379 0 1 -1.1794 7.984243624698618 18.31889351402651 1.3677496456670328 0 0 -1
381 0 2 0.5897 8.523446679000031 17.70574250150944 0.8653834756325619 0 0 -1
1530 0 2 0.5897 9.448491187620654 18.836663966394546 3.9210276098764645 0 -2 0
1528 0 1 -1.1794 9.941119803590716 17.99813644923218 3.970595067768001 0 -2 0
1826 0 2 0.5897 11.82845479283214 16.183035203174192 1.9835609852963842 0 0 1
1297 0 1 -1.1794 0.9852178155284494 1.1129943232828146 7.020172231427634 0 0 -1
2031 0 2 0.5897 4.0993880273759835 2.782685116203778 4.780467238011098 0 0 0
1600 0 1 -1.1794 3.7446688283781078 1.9488029515711178 6.294253834159089 0 1 -1
1601 0 2 0.5897 3.8515778362734796 2.3994009916487262 7.151533794969739 0 1 -1
1602 0 2 0.5897 3.048187882090515 1.3227531483978192 6.440523154306846 0 1 -1
810 0 2 0.5897 5.382977911307223 0.8933932438181387 6.243181060328302 0 -1 -1
808 0 1 -1.1794 6.280027515582475 0.42593787560269136 6.295909150138749 0 -1 -1
1561 0 1 -1.1794 1.2198945208815257 3.9825197655568356 6.771294996438819 0 1 -1
1563 0 2 0.5897 0.94146608648807 3.0675994726994134 6.872405140242502 0 1 -1
1298 0 2 0.5897 1.1736431150596576 0.9379912697620525 7.9654853026051775 0 0 -1
866 0 2 0.5897 6.878923027611321 2.783897816469899 4.300467815071016 0 1 2
1077 0 2 0.5897 8.618527288996642 0.7278539898961924 4.448310792079106 0 0 1
842 0 2 0.5897 10.394548806288116 3.8685007446880686 4.832263916430272 0 -1 -1
841 0 1 -1.1794 10.777539470870826 3.2223867725917024 5.41903240332043 0 -1 -1
865 0 1 -1.1794 7.162704808408253 3.583828083463853 4.810221237667013 0 1 2
809 0 2 0.5897 6.7196335629883075 0.5653460221441823 5.463516063369776 0 -1 -1
843 0 2 0.5897 10.176428051584939 3.0391440534820355 6.17734861218487 0 -1 -1
851 0 2 0.5897 7.962320154458787 2.899190033527347 6.081057758429073 0 0 1
1812 0 2 0.5897 10.744912155595769 0.8138425456682035 7.514271903057939 0 0 -1
850 0 1 -1.1794 8.508997888137724 2.6142883094643055 6.84896241719455 0 0 1
852 0 2 0.5897 8.019359192332722 3.0101966495845214 7.610062566855247 0 1 1
734 0 2 0.5897 7.2186539139806 0.13038362330386621 7.721033379009193 1 1 -1
1810 0 1 -1.1794 10.906461066034705 0.2922151584055192 6.703134999201945 0 0 -1
1076 0 2 0.5897 9.476054739225525 0.1698598888050457 5.6498008980356555 0 0 1
1811 0 2 0.5897 11.77749040573597 0.5612108587664048 6.378594408789497 0 0 -1
1384 0 1 -1.1794 3.093432832896318 5.87556693202743 5.759942171585264 0 0 0
1536 0 2 0.5897 4.663357924995163 5.3945623681372314 6.148716469809987 0 0 0
1386 0 2 0.5897 2.403199667962967 5.287710863500739 6.033521461919416 0 0 0
1385 0 2 0.5897 2.9096065689294948 6.744249816580252 6.07593898013482 0 0 0
1534 0 1 -1.1794 5.597330647162799 5.135681617811709 6.176300935291983 0 0 0
1535 0 2 0.5897 6.068544951982383 5.994430535038347 6.10464705241782 0 0 0
1517 0 2 0.5897 6.302492287991115 4.562396184060171 7.654295295931407 0 0 0
1378 0 1 -1.1794 4.893637072689239 7.804152062812592 8.311803941764284 0 0 1
312 0 2 0.5897 6.244236325803602 7.829249920766507 7.2441489317095 0 0 1
867 0 2 0.5897 6.366659342356063 4.14855806830516 5.024195026389311 0 1 2
1044 0 2 0.5897 8.491492046449508 4.8385456141775025 4.466124859749276 0 1 2
1042 0 1 -1.1794 9.133635565012051 5.526815161626649 4.716463394469474 0 1 2
1043 0 2 0.5897 9.124633651998037 5.596719602681253 5.669456064561824 0 1 2
1780 0 1 -1.1794 9.792986907045437 6.144982022453578 7.306649682760569 0 -1 0
1782 0 2 0.5897 9.019098586191285 6.120745084505882 7.9509392070322376 0 -1 0
1781 0 2 0.5897 10.246939793157363 5.317828187882296 7.426113209384542 0 -1 0
1085 0 2 0.5897 11.043047699537535 7.523898465301448 6.31269548448978 0 -1 -1
310 0 1 -1.1794 6.786421486910343 7.7158735714916995 6.4472405250111064 0 0 1
309 0 2 0.5897 6.898946503091901 7.9411003452864914 4.400014113542868 0 -1 2
883 0 1 -1.1794 0.6152061654951019 9.435420536138178 7.710367854311814 0 0 0
2047 0 1 -1.1794 2.1342202893399995 11.809503355641935 4.2977291731735034 0 -1 0
577 0 1 -1.1794 2.994919616415257 8.69708510812982 6.314960824969927 0 0 1
1380 0 2 0.5897 4.170300145588493 8.09295090224455 7.712921860713873 0 0 1
579 0 2 0.5897 2.311593734289543 9.280546039511838 6.706875570449309 0 0 1
578 0 2 0.5897 3.1962295281938067 9.133794898924824 5.49194702445937 0 0 1
92 0 2 0.5897 4.660045180769954 11.021054758690063 8.139920184722325 0 0 1
1319 0 2 0.5897 5.041693666453928 11.756063564399271 5.945840029813437 0 -2 0
1318 0 1 -1.1794 5.9703924874899 11.639548321361767 5.663176360858889 0 -2 0
2049 0 2 0.5897 1.2054990641158558 11.521302948703212 4.300429701245288 0 -1 0
1084 0 1 -1.1794 11.18920045220453 8.377451820943822 5.873843881973888 0 -1 -1
2142 0 2 0.5897 7.412415470081185 11.029196080978204 4.177062804127959 0 1 1
2090 0 2 0.5897 9.744266172210661 11.15398312298617 4.52940762666181 0 0 1
311 0 2 0.5897 7.579711584494545 8.247479930423875 6.56269558977603 0 0 1
1091 0 2 0.5897 8.509779387110715 10.120146012682088 5.913192810641052 0 0 0
1090 0 1 -1.1794 8.716806294753104 9.541058371186887 6.692410509529399 0 0 0
1092 0 2 0.5897 9.686256888101308 9.297929709868168 6.584290236047932 0 0 0
2089 0 1 -1.1794 10.583004339016016 11.588313791322463 4.622374827146781 0 0 1
2091 0 2 0.5897 10.740599606994659 11.831992165505692 5.573410599219286 0 0 1
1320 0 2 0.5897 6.4374282055976515 11.850101634049487 6.535788279082017 0 -1 0
2016 0 2 0.5897 11.767763145698872 11.415573110523322 7.513408532021773 1 -1 1
1273 0 1 -1.1794 7.465934491834726 12.008416912281461 8.27383352091942 0 0 1
68 0 2 0.5897 7.934474657235239 9.400325236664843 8.273290163734323 0 -1 -1
1086 0 2 0.5897 12.093750912284893 8.540141795807214 6.09264575905413 0 -1 -1
2051 0 2 0.5897 0.6653249507721669 15.007717860203847 7.508489357381757 0 0 0
1119 0 2 0.5897 2.9085477909536706 12.128565130223341 5.757451863817707 0 0 0
1117 0 1 -1.1794 3.4819438888601364 12.269542353159409 6.557465928342123 0 0 0
1118 0 2 0.5897 3.624884894251348 13.232983262456868 6.6209899815456055 0 0 0
2145 0 2 0.5897 2.9896149062291206 15.388187928760612 7.633797361738361 0 0 1
291 0 2 0.5897 6.135671357457288 13.769214394041827 4.9503033720629785 0 0 0
2143 0 1 -1.1794 3.7837838507248933 15.472228969314436 7.149588834403727 0 0 1
57 0 2 0.5897 1.558198184463748 12.22096681733493 7.988105327517205 0 0 0
2058 0 2 0.5897 2.1889883775060444 15.959319994464506 4.573513916716918 0 -1 0
2057 0 2 0.5897 2.231149035026096 15.95968288062006 6.148049448940468 0 -1 0
55 0 1 -1.1794 0.6467717837361887 12.097461966318416 8.23477426135961 0 0 0
2050 0 1 -1.1794 1.3705233748638026 15.25813408066989 8.123274671706142 0 0 0
2014 0 1 -1.1794 11.429961410360033 12.19343631411372 7.090700184839758 1 -1 1
1515 0 2 0.5897 8.043531335813253 14.203392485364432 6.690948654041932 0 -1 -1
1513 0 1 -1.1794 8.546020871256344 13.952633019285114 5.854628102277756 0 -1 -1
1514 0 2 0.5897 8.87192988420848 13.057682560151598 5.9922939567852325 0 -1 -1
1779 0 2 0.5897 9.74463952231156 15.097874762578442 5.821807641118888 0 -1 0
1777 0 1 -1.1794 10.461675092979112 15.762711388241108 5.8040153167573125 0 -1 0
2076 0 2 0.5897 10.899864901350886 15.680398076845227 8.296314086160875 0 -1 0
630 0 2 0.5897 11.827536182679347 15.005667997945759 6.325076877752578 0 0 0
2015 0 2 0.5897 12.134754581277523 12.853079961261232 6.926145402811232 1 -1 1
1527 0 2 0.5897 1.612714766836564 19.691919707673637 5.709755409332649 0 -1 0
2144 0 2 0.5897 4.204859936960589 16.350011950840077 7.121906250724031 0 0 1
266 0 2 0.5897 5.420578276598135 16.76347061840103 4.424403739062045 0 -1 0
2010 0 2 0.5897 3.8803962576762627 18.640378778430424 6.2546692295681785 0 -1 0
2008 0 1 -1.1794 4.572447922614078 18.2409414190538 6.821186092166797 1 -1 0
1525 0 1 -1.1794 2.3361891378827218 19.084680527235847 5.503672126277834 0 -1 0
1526 0 2 0.5897 1.92328835648449 18.207434472490664 5.382375639337931 0 -1 0
2056 0 1 -1.1794 1.7297933343238479 16.340026844680327 5.368117394379838 0 -1 0
2009 0 2 0.5897 5.371955701405417 18.3121311345918 6.301787746785858 1 -1 0
1143 0 2 0.5897 11.81434369178905 18.42066842201685 4.377037426233079 0 -1 1
1778 0 2 0.5897 10.215765244055016 16.233581470990693 5.052609595615805 0 -1 0
1075 0 1 -1.1794 8.827531705796256 20.013615947172546 4.917708698780739 0 -1 1
1055 0 2 0.5897 7.3875874573233435 17.28392654525253 5.988018199985334 0 0 1
1054 0 1 -1.1794 6.910905615206639 17.74436733036092 5.252755100186031 0 0 1
1056 0 2 0.5897 7.391949791141412 18.50414065368643 5.082153121688817 0 0 1
1894 0 1 -1.1794 7.6639357727823505 16.362972524449518 7.640276637178183 0 1 0
1896 0 2 0.5897 8.516536717289688 16.809132622363173 7.765434133964797 0 1 0
52 0 1 -1.1794 10.364930452932622 17.684217442326133 8.079721954493767 0 -1 1
54 0 2 0.5897 10.559529281411484 18.456070230964723 7.500754830347086 0 -1 1
1636 0 1 -1.1794 4.150238655545708 3.1439143775417397 8.65476692262514 0 0 1
79 0 1 -1.1794 1.1197267652176546 0.7200244036334987 10.539112343443167 0 0 -1
333 0 2 0.5897 5.37244060072403 1.5569022014765008 11.18564749962033 0 0 0
1109 0 2 0.5897 2.6976069935978004 1.2240995390547944 10.857051077551448 0 1 1
1108 0 1 -1.1794 3.5183021112707435 1.5971122772390312 11.088715793549076 0 1 1
1110 0 2 0.5897 3.7200814065114605 2.2967766426808507 10.394551552650839 0 1 1
331 0 1 -1.1794 6.3055645430098135 1.4614478034973328 10.860144850455796 0 0 0
332 0 2 0.5897 6.277832328551715 1.169334415957979 9.941351673965718 0 0 0
1638 0 2 0.5897 5.008547865408034 3.508724869603858 8.90511696949935 0 0 1
1637 0 2 0.5897 3.4853237310299208 3.8068511914165777 8.948676859445403 0 0 1
387 0 2 0.5897 4.148124644942126 0.30734647991759834 9.528251264123716 0 1 0
1610 0 2 0.5897 2.2318962637756035 2.4115866273584183 12.398851164733419 0 2 1
733 0 1 -1.1794 7.614251540778258 0.1124682156422177 8.628769506568005 1 1 -1
62 0 2 0.5897 10.166689342186801 0.6929515955898968 9.82157054924311 0 -1 1
61 0 1 -1.1794 9.943285523986178 1.27998323222908 9.10404938526629 0 -1 1
63 0 2 0.5897 9.01851391877389 1.0722886630547168 8.899331917243801 0 -1 1
1068 0 2 0.5897 7.64433660920486 0.6648006508808016 11.675189497609187 0 0 1
1113 0 2 0.5897 11.79414778094444 0.008340218682257379 12.484383968982472 0 1 2
1066 0 1 -1.1794 8.381023884475393 0.07718007329317858 11.85888318880717 0 0 1
42 0 2 0.5897 10.307937794645296 3.1984871533863903 8.813788439369048 0 0 0
2028 0 2 0.5897 6.568598791187055 3.6892474583404278 11.242623357036063 0 -1 2
1539 0 2 0.5897 11.454855720692064 3.934743018396328 12.276245010287374 0 -1 0
40 0 1 -1.1794 10.849320866825403 4.001577617307855 8.654303077115909 0 0 0
1365 0 2 0.5897 1.267301919849701 4.441152331826895 8.516781553779072 0 -2 -1
1364 0 2 0.5897 0.9622356128326162 4.508326077805176 10.125334570836007 0 -2 -1
1363 0 1 -1.1794 1.6380222852730821 4.538161429232707 9.418485130404814 0 -2 -1
1820 0 2 0.5897 3.5331487870760614 5.339015501347797 10.128163175435207 0 1 0
1819 0 1 -1.1794 4.367889872355801 5.705659110475738 10.106653922244785 0 1 0
281 0 2 0.5897 1.7279006839818802 6.562349447737621 9.58903319632212 0 1 0
1821 0 2 0.5897 5.036749096591633 5.088859208247297 10.568814687750434 0 1 0
1379 0 2 0.5897 4.489220020778175 7.160055982619095 8.87361895148442 0 0 1
2027 0 2 0.5897 5.788654968436916 4.550747844507571 12.181697177389736 0 -1 2
896 0 2 0.5897 5.501047260044565 6.75602259670918 12.011976731630911 0 0 0
280 0 1 -1.1794 1.56243284375959 7.489446736484554 9.67959422752821 0 1 0
282 0 2 0.5897 2.26264128022995 7.961706506153598 10.22286429468566 0 1 1
895 0 1 -1.1794 5.371816492075118 7.654635703927603 12.253787972438433 0 0 0
1516 0 1 -1.1794 6.671529753627886 4.238240921200604 8.555128296331413 0 0 0
1537 0 1 -1.1794 10.516753936633943 4.023579998909214 12.44727092681748 0 -1 0
2083 0 1 -1.1794 11.802368849380706 6.179129274089465 9.957135270716336 0 2 0
1518 0 2 0.5897 7.137664807730895 5.017770094229875 8.961641680032058 0 0 1
1538 0 2 0.5897 10.216347600752227 4.94114760521703 12.157255313971806 0 -1 0
2026 0 1 -1.1794 6.4222411542020295 4.653274836149131 11.448170961038954 0 -1 2
1549 0 1 -1.1794 7.9078464416760825 6.520026198890443 9.394360264194786 0 1 1
41 0 2 0.5897 10.96400970123244 4.401162659526232 9.514368325527176 0 0 0
1550 0 2 0.5897 8.321502479245291 6.53388475139028 10.319805957926226 0 1 1
1036 0 1 -1.1794 8.952424970087485 6.183762127208064 11.971413410945912 0 0 0
1038 0 2 0.5897 8.221649269098744 5.578062543233939 12.05198133546359 0 0 0
1551 0 2 0.5897 7.507000443648064 7.390868900787873 9.349712442110523 0 1 0
759 0 2 0.5897 10.814840303144114 7.51562802110288 9.66040173417622 0 0 0
2084 0 2 0.5897 11.984526736445323 6.468565253288554 10.88293178713882 0 2 0
93 0 2 0.5897 5.485321142366718 9.830092130025887 8.769068425171412 0 0 1
91 0 1 -1.1794 5.0742035306277335 10.694423172122374 8.939189002575041 0 0 1
884 0 2 0.5897 0.8144651082185637 8.943639743323804 8.526545598154303 0 0 0
833 0 2 0.5897 4.156960086116026 8.81030003771047 11.270337611134638 0 1 1
832 0 1 -1.1794 3.439943293808563 9.249869418988421 10.752462388654369 0 1 1
834 0 2 0.5897 3.964684822320776 9.705713732898477 10.072216645690695 0 1 1
2103 0 2 0.5897 3.1516708095851995 11.105740899164335 11.630725204584415 0 0 1
552 0 2 0.5897 2.638031152692647 8.922776806353616 12.48218491861584 0 0 1
2101 0 1 -1.1794 3.070266567204983 11.968350722934293 11.943090191850796 0 0 1
758 0 2 0.5897 9.576584798646884 8.247302617412885 9.224249762723066 0 0 0
757 0 1 -1.1794 10.440987736100773 8.39390401678735 9.598496117646128 0 0 0
67 0 1 -1.1794 7.527852712213101 8.963268832680322 8.997018297909754 0 -1 -1
69 0 2 0.5897 7.190153113496642 9.688175499704547 9.527901842351795 0 -1 -1
1570 0 1 -1.1794 9.584174330158792 9.313226975852144 11.885109654338866 0 0 1
1571 0 2 0.5897 9.835699321913566 8.688903569961036 11.181624303504384 0 0 1
2018 0 2 0.5897 10.58962800605988 11.077872231727522 11.597989896862195 1 0 0
2036 0 2 0.5897 6.502307067521634 9.081583781136793 11.933517918007876 0 0 0
899 0 2 0.5897 11.80169210197332 9.392321932454081 8.754229021766713 0 -1 0
2037 0 2 0.5897 7.964535762983647 9.595389308113225 11.68404869229145 0 0 0
2035 0 1 -1.1794 7.044497552459729 9.902565606978817 11.824796627340215 0 0 0
56 0 2 0.5897 0.6072505226484184 12.636382571679407 9.038565038747686 0 0 0
1988 0 2 0.5897 1.2710330217588361 14.302294711511562 10.93626661893054 1 0 0
870 0 2 0.5897 4.941013658839941 14.820611680649302 8.952771587755768 0 -1 0
2052 0 2 0.5897 1.4946276072886653 14.613423753525081 8.815020239650007 0 0 0
1987 0 1 -1.1794 2.0666403578974597 13.968844957814952 10.462118306645582 1 0 0
1989 0 2 0.5897 2.322859737763343 13.189773794867085 10.920481116136637 1 0 0
869 0 2 0.5897 5.04565848874594 13.889824516759512 10.158650739878544 0 -1 0
1644 0 2 0.5897 3.1955280882149664 15.837700132377257 10.728149160040278 0 0 -1
849 0 2 0.5897 4.4138562690201875 12.871339495247078 12.28696183569842 0 -1 -1
868 0 1 -1.1794 5.527112569567305 14.221427310179196 9.39355549971644 0 -1 0
2074 0 1 -1.1794 11.316657489831384 15.037045911628427 8.867790512072528 0 -1 0
1274 0 2 0.5897 8.127310678552924 12.566344042181397 8.746474016551108 0 0 1
2017 0 1 -1.1794 10.69617907057437 12.070058898876786 11.589076520484918 0 0 0
2019 0 2 0.5897 10.161934552118371 12.25989435723566 10.807528411019497 0 0 0
1275 0 2 0.5897 6.688706191222884 12.370941577695335 8.800456491795039 0 0 1
1368 0 2 0.5897 10.306010437237285 13.713715541947444 9.170243687164195 0 -1 1
1545 0 2 0.5897 7.200408237355099 15.234793936441969 10.395180880226802 0 1 0
1543 0 1 -1.1794 8.118246638788479 15.418633977733757 10.679141598391512 0 1 0
1367 0 2 0.5897 9.08673545325008 14.224824358083179 9.949031203244846 0 -1 1
1366 0 1 -1.1794 9.489992299203399 13.393754457885862 9.594578728366322 0 -1 1
2075 0 2 0.5897 11.46369516599673 15.52305487971963 9.72140335702337 0 -1 0
639 0 2 0.5897 11.148009093556551 15.772807367636439 12.10738138144233 0 -3 1
386 0 2 0.5897 4.541210951154583 19.31386197906343 8.502102525517524 0 0 0
81 0 2 0.5897 1.002434722373315 19.92180170840016 11.018968194054137 0 -1 -1
1312 0 1 -1.1794 1.0157872161012529 18.172019076920016 8.734303764428738 0 -1 -1
1643 0 2 0.5897 3.9792349138016836 16.43423829404053 11.941370614973936 0 0 -1
385 0 1 -1.1794 3.9814947210214147 19.452603897243254 9.260114676739182 0 0 0
1642 0 1 -1.1794 3.5439544250661594 16.66857375072081 11.080735011151752 0 0 -1
1313 0 2 0.5897 1.302486278733912 17.24318937749768 8.45748895993474 0 -1 -1
1560 0 2 0.5897 5.32819008084395 17.766055945278676 9.809828212794372 0 -1 0
1558 0 1 -1.1794 6.269134020697095 17.82445641094107 9.947354594476971 0 -1 0
2120 0 2 0.5897 2.222699307388477 17.74009614225545 11.653982785169502 0 0 0
2119 0 1 -1.1794 1.627308248787729 18.461520089438128 11.831982446785963 0 0 0
1559 0 2 0.5897 6.3064157039150075 17.956402652095466 10.918666928824159 0 -1 0
1314 0 2 0.5897 1.8306164906471127 18.461906563103547 9.028627588709007 0 -1 -1
638 0 2 0.5897 11.972931753933874 16.898712257105107 11.68429327162332 0 -3 1
1895 0 2 0.5897 7.179060628845486 16.702662367470854 8.396160348535396 0 1 0
1067 0 2 0.5897 7.949850373151549 19.38254605496863 12.390556811687198 0 -1 1
735 0 2 0.5897 7.149458986452049 19.367448666398197 8.994614801408357 1 0 -1
1544 0 2 0.5897 8.351777769741764 16.35511735105619 10.460550040168684 0 1 0
637 0 1 -1.1794 11.21899282800687 16.401677519128796 11.339955547750812 0 -3 1
1587 0 2 0.5897 9.986087782127584 17.645348656265732 11.017964245583833 0 -1 -1
1585 0 1 -1.1794 9.21150743855757 17.903871607021387 10.42037986331659 0 -1 -1
53 0 2 0.5897 10.042873484050554 18.056871470971902 8.927148036345468 0 -1 1
1586 0 2 0.5897 8.922533291936201 18.79950775898026 10.736043505951246 0 -1 -1
1611 0 2 0.5897 1.343365757814641 3.4772502445605866 12.856587319632666 0 2 1
1609 0 1 -1.1794 1.5772672489395176 2.5578031346178687 13.082884622008208 0 2 1
1345 0 1 -1.1794 5.145747283970962 1.9955779131108842 14.237265151955722 0 0 -2
2123 0 2 0.5897 2.2945201970735947 2.5337647107516053 15.229282305437964 0 0 -1
284 0 2 0.5897 4.6714314691161665 1.399107445907316 16.003068500005856 0 1 -1
1346 0 2 0.5897 4.800094189501478 1.1847504174235313 13.843881314096423 0 0 -2
1347 0 2 0.5897 6.07498503869442 2.093291366281595 14.113957664773604 0 0 -2
2122 0 1 -1.1794 2.520811224378818 3.2567440005877613 15.792955608309368 0 0 -1
1046 0 2 0.5897 4.6374252966290035 3.800996836990573 13.820977874035734 0 2 0
774 0 2 0.5897 2.3885806790793387 0.12342082364779479 16.5125506583288 0 0 -1
283 0 1 -1.1794 4.462025503654572 0.7510874008153453 16.67873967956871 0 1 -1
120 0 2 0.5897 12.035249605329481 3.9559919975559756 15.256528748874368 0 0 0
35 0 2 0.5897 10.453147957625708 2.0180275731060737 13.008935525299357 0 1 0
34 0 1 -1.1794 10.355720277139362 1.1607035142417819 13.46990588022164 0 1 0
36 0 2 0.5897 9.709622192524032 0.5745436696179985 12.984694901376033 0 1 0
545 0 2 0.5897 11.46966140480124 0.7659023757871221 15.507099097877997 0 2 0
1783 0 1 -1.1794 7.632077261578451 2.883889142598293 14.66250928633687 0 1 0
1785 0 2 0.5897 8.502822429810998 2.5416009795735097 14.467500425409956 0 1 0
299 0 2 0.5897 8.890027571242525 0.31144131467664876 15.77226550042845 0 -1 1
770 0 2 0.5897 10.540791236928973 2.7419945781872017 16.393279518469953 0 0 1
1784 0 2 0.5897 7.724389608270751 3.8301583295387824 14.59630511394181 1 1 0
548 0 2 0.5897 7.4614051406150566 2.660894872683558 16.547775716720807 0 -2 -2
769 0 1 -1.1794 10.090078931730933 1.8617891440963679 16.431696791118984 0 0 1
1027 0 1 -1.1794 2.3041297622367836 5.814613409483388 12.697565547631116 0 1 0
94 0 1 -1.1794 1.343629799474685 5.683450242435745 15.506875306585302 0 1 0
1028 0 2 0.5897 1.6249851619153028 5.577170313028424 13.356108875192714 0 1 0
1029 0 2 0.5897 2.5059179582101487 6.720126437608478 12.992079546080745 1 1 0
95 0 2 0.5897 1.742795994795032 4.823906646260869 15.529523156865855 0 1 0
1047 0 2 0.5897 3.777938095619445 4.741808689828482 13.10984399077353 0 2 0
1045 0 1 -1.1794 4.670961881675499 4.680276789205504 13.46738781524676 0 2 0
1101 0 2 0.5897 5.198485207100043 5.942240298719765 15.067407816054631 0 -1 0
1099 0 1 -1.1794 5.506798091092027 6.899721869517182 14.97235350331876 0 -1 0
1100 0 2 0.5897 5.590259769780325 7.252259379500551 15.881277832424708 0 -1 0
1053 0 2 0.5897 2.3437889788028414 7.529702300224018 16.156956999964606 0 0 1
564 0 2 0.5897 4.222298409311343 4.214357128813382 16.57864807647315 0 1 -1
897 0 2 0.5897 5.336753468060583 7.582620713755041 13.238996287560543 0 0 0
96 0 2 0.5897 0.8832471164122664 5.7815488068749925 16.39092829193211 0 1 0
1037 0 2 0.5897 8.99901720549981 6.656941422681039 12.807039517313301 0 0 0