LAMMPS data file via write_data, version 23 Jun 2022, timestep = 22663000

2268 atoms
2 atom types

0.5606769901428947 46.89002200985405 xlo xhi
0 20.047001 ylo yhi
0 20.857 zlo zhi

Masses

1 1.008
2 15.999

Atoms # full

896 0 2 0.5897 2.892535102344537 1.0379587213141779 2.93264155686801 0 0 0
897 0 2 0.5897 1.7724335465492504 1.1788903900258458 1.9010634142651401 0 0 0
754 0 1 -1.1794 4.364503263825659 2.861369918607574 1.3376170506417884 1 -1 1
895 0 1 -1.1794 2.438723398044435 0.5612523565528984 2.2505208640872048 0 0 0
756 0 2 0.5897 3.722043964005782 2.153790447969134 1.4768494117594924 1 -1 2
2261 0 2 0.5897 5.595458800087142 1.5828128400084096 3.411221350737263 1 1 0
2075 0 2 0.5897 6.037674655202516 3.0575425829103504 0.5902685025119851 0 -2 2
755 0 2 0.5897 3.8555022369592704 3.603621817832431 0.9513232253326893 1 -1 2
633 0 2 0.5897 2.211766785323595 3.915658865232034 2.7896552251745548 0 -1 1
257 0 2 0.5897 1.0827997834936323 2.590668477244632 0.5015447788602246 0 1 0
256 0 1 -1.1794 0.5726091780203859 2.0575540474316765 1.0999137331205509 0 1 0
2003 0 2 0.5897 0.5892403254434626 0.26245958758708743 0.38820242462400323 1 1 1
2262 0 2 0.5897 6.605604264601509 1.7170733443156954 2.1740910679212377 1 1 0
2074 0 1 -1.1794 6.9220354225635035 2.660360371597791 0.5120975928868642 0 -2 2
20 0 2 0.5897 6.776520008988014 3.9408451260361117 3.3868747633636724 0 -1 0
2260 0 1 -1.1794 6.494542813288078 1.3978203043007498 3.0924745686043784 1 1 0
365 0 2 0.5897 9.351987964995612 1.9165673872794236 2.4798416505755556 0 1 -2
868 0 1 -1.1794 9.026601899543017 1.055226484619944 0.9301751897502135 0 -1 0
364 0 1 -1.1794 9.422051962739898 2.5875784386434035 3.1862234517651604 0 1 -2
870 0 2 0.5897 9.835071516663813 1.2603450030893182 0.4849414115436278 0 -1 0
366 0 2 0.5897 10.399858391516261 2.608432807807708 3.4207980532315587 0 1 -2
2076 0 2 0.5897 7.583002493696949 3.4068582401246528 0.6253369743484078 0 -2 2
760 0 1 -1.1794 11.784579757795004 1.1713041265790558 0.38347547815124994 0 1 0
869 0 2 0.5897 8.304375135820756 1.6314605517072112 0.6534857266913126 0 -1 0
605 0 2 0.5897 12.014917721780753 2.867639555634784 1.4695182874522956 0 1 2
761 0 2 0.5897 12.049545425371452 0.2756786827713904 0.6822967169239548 0 1 0
631 0 1 -1.1794 1.8085196433389934 4.770515134819045 2.5492728601529824 0 -1 1
1098 0 2 0.5897 1.0419373268472663 7.385977987593337 0.05762231491466614 0 -1 0
849 0 2 0.5897 4.958762739293159 7.2580848958312005 2.2957976677240293 0 -1 -1
847 0 1 -1.1794 4.914249011773384 6.335795834688942 2.156574725646007 0 -1 -1
848 0 2 0.5897 5.509049128213928 5.95015838321791 2.791397822608038 0 -1 -1
1245 0 2 0.5897 4.145377235770512 5.704918185190508 0.7761510445075146 1 0 0
632 0 2 0.5897 0.8437549533450345 4.535420290876403 2.481305571013818 0 -1 1
267 0 2 0.5897 2.864909216066133 6.658628892447344 3.3640745477398712 0 0 -1
265 0 1 -1.1794 2.574348434368465 7.170173167147556 4.091690810268496 0 0 -1
19 0 1 -1.1794 6.175866302283938 4.616993323989536 3.7580043381303234 0 -1 0
1243 0 1 -1.1794 3.691984492862398 5.141992847076935 0.1082404039229572 1 0 0
1244 0 2 0.5897 2.74393328714087 5.25015350682584 0.1830692854655273 1 0 0
1300 0 1 -1.1794 8.914008765801874 4.437823252253457 0.9626996196737135 0 -1 0
1302 0 2 0.5897 8.980982907081193 4.044496001230875 1.823989580099617 0 -1 0
820 0 1 -1.1794 10.86498067741619 5.847509847013188 3.196199376403999 0 -1 3
21 0 2 0.5897 6.855601691705269 5.253774780173578 4.010394580729891 1 -1 0
517 0 1 -1.1794 7.886652406891859 7.024844463176519 1.2203808198596664 0 1 3
519 0 2 0.5897 7.599493810995328 7.157891485078976 2.131563095978876 0 1 3
1301 0 2 0.5897 8.466592062233062 5.313246477447079 1.1148158101475667 0 -1 0
372 0 2 0.5897 10.453312513060826 6.74977229577026 1.7816237801346155 0 3 0
822 0 2 0.5897 10.122131305693182 5.471547667094249 3.7121426404194082 0 -1 3
370 0 1 -1.1794 10.468131254589697 7.433111657494378 1.1088304840811845 0 3 0
371 0 2 0.5897 9.56453307075379 7.731309628092129 1.0941000068258393 0 3 0
2248 0 1 -1.1794 7.3360146897110265 7.042795964120099 3.9559089976965227 1 1 0
518 0 2 0.5897 7.124016069083411 7.042171822012963 0.5858493802353003 0 1 3
821 0 2 0.5897 11.367544547223785 5.002245408735475 2.960278667706602 0 -1 3
606 0 2 0.5897 11.972455066819196 4.289207531236987 1.0634075853018596 0 1 2
1096 0 1 -1.1794 1.0015225542702133 8.086431649124275 0.6801153685978685 0 -1 0
1097 0 2 0.5897 1.9883920672588904 8.300203332113995 0.763396342432369 0 -1 0
385 0 1 -1.1794 5.2255267480428005 8.97094728590271 2.8356674791933996 0 0 -1
386 0 2 0.5897 5.096184064568884 9.331606975198815 3.7171770307114067 0 0 -1
69 0 2 0.5897 4.059176799307853 9.48183012228992 1.5126052826475014 0 -2 -1
67 0 1 -1.1794 3.523376431634083 9.585291191385558 0.7166325246792156 0 -2 -1
68 0 2 0.5897 2.798934842724057 10.219586140324347 1.005721525498961 0 -2 -1
108 0 2 0.5897 2.0443623479778 11.243808601196955 2.555814112283844 0 -1 -2
106 0 1 -1.1794 1.956544142948557 11.678470834335371 1.6754704877596425 0 -1 -2
387 0 2 0.5897 6.130382747095452 9.31593390160135 2.578925076181313 0 0 -1
2069 0 2 0.5897 2.0895991970899876 9.030184662832518 3.7824782997100166 0 -3 1
2068 0 1 -1.1794 1.895310389788617 9.95423078759508 4.000864694878274 0 -3 1
2108 0 2 0.5897 6.639575182383899 11.049836864433463 0.5580420306153655 0 1 2
2107 0 1 -1.1794 6.471173654506726 11.869748835436443 0.023033873107037573 0 1 2
84 0 2 0.5897 11.048193940395084 11.000932376080089 0.9600167443767419 0 2 1
1018 0 1 -1.1794 7.532936966384378 10.014483507402325 1.6066979159432817 0 -2 0
1019 0 2 0.5897 7.831287597732965 9.386611654082543 0.926082149054434 0 -2 0
1020 0 2 0.5897 8.184819116660963 10.079256898113657 2.3428008381805556 0 -2 0
1823 0 2 0.5897 11.828379846851012 11.185702978281764 2.9966621578644546 0 0 -3
82 0 1 -1.1794 10.8434199462371 11.595409599044629 1.6902254828145995 0 2 1
88 0 1 -1.1794 8.50026403711514 10.314698830253548 4.027644537363861 0 -3 0
2102 0 2 0.5897 11.650631061743915 8.789097215261457 0.1480287331886557 0 0 1
2109 0 2 0.5897 5.661696439697441 12.38012493359165 0.22024074086044026 0 1 2
107 0 2 0.5897 1.0611468250967993 12.04518897128181 1.634307460101009 0 -1 -2
1491 0 2 0.5897 3.4795580725891755 12.92718672342688 0.9432078894162956 1 1 -1
1489 0 1 -1.1794 4.192048921518378 13.37534166815965 0.4747925717602993 1 1 -1
1608 0 2 0.5897 5.4341244502375305 15.409020654555125 3.0508786213234997 0 0 1
50 0 2 0.5897 3.8291293872533543 15.124880751599601 1.5412599127073332 0 1 1
1884 0 2 0.5897 1.0942704003010288 14.505406877790536 3.1720198380320026 0 -2 1
49 0 1 -1.1794 3.8054625530906803 15.66521008593643 2.3550885798870986 0 1 1
1594 0 1 -1.1794 0.6436622200967164 14.893305965934472 1.6026543783126024 0 0 1
1606 0 1 -1.1794 6.3177982903803676 15.515813216681737 3.460202933150435 0 0 1
1595 0 2 0.5897 0.6873329921394136 15.898857143927442 1.5551882811661517 0 0 1
1882 0 1 -1.1794 1.2667586032096325 14.431653510608307 4.111397580706885 0 -2 1
1596 0 2 0.5897 0.9374115412179512 14.439255852266138 0.7767117940529339 0 0 1
83 0 2 0.5897 9.992528587958748 12.031997347185358 1.5399028856416814 0 2 1
2052 0 2 0.5897 7.55707693952073 14.121637189117262 3.856696373961378 0 0 1
1292 0 2 0.5897 8.33292468172474 13.241870086110834 2.1976368572814144 0 0 3
1291 0 1 -1.1794 8.723645225436087 13.003112742687238 1.3243733673006284 0 0 3
782 0 2 0.5897 9.338895574064907 14.802421164043539 0.8561963870481403 0 -3 1
2050 0 1 -1.1794 7.967678869273127 13.244621746910886 3.996953839800797 0 0 1
2090 0 2 0.5897 11.885896794051684 13.875414849504478 2.9656697662248623 0 0 1
1293 0 2 0.5897 8.008216974110615 12.542936555341408 0.8155016764379944 0 0 3
899 0 2 0.5897 10.95128104615821 15.797438340028085 2.3525186823442263 0 -3 1
781 0 1 -1.1794 9.150509007495732 15.616336463326396 0.33642978489950254 0 -3 1
2091 0 2 0.5897 12.068190213983403 13.98035961874877 1.3201004878192384 0 0 1
2089 0 1 -1.1794 12.13993105513643 14.47236218226484 2.1834294741102154 0 0 1
51 0 2 0.5897 3.6287966240231158 16.579728138150543 2.0622366189138086 0 1 1
875 0 2 0.5897 3.6263413770762583 19.243633857849577 1.6211505893085383 0 -1 1
874 0 1 -1.1794 4.0381013814405105 18.427597672082253 1.2393469882740245 0 -2 1
876 0 2 0.5897 4.952093361597474 18.338356302817907 1.5479634422966404 0 -2 1
1566 0 2 0.5897 1.7140208525465566 19.203661660343343 3.5573484367483963 0 0 -1
1564 0 1 -1.1794 1.00974581749534 18.75482005355695 4.076886010869413 0 0 -1
1580 0 2 0.5897 0.5938994371050437 18.08696276540726 0.9782034248264528 0 2 1
1615 0 1 -1.1794 11.881623074664219 18.679050708038634 1.4515167044295478 0 -3 -1
1607 0 2 0.5897 6.729347524594105 16.17586154783205 2.839108036553393 0 0 1
1610 0 2 0.5897 7.153756530568335 17.43622506088595 0.4896192880707565 0 1 0
318 0 2 0.5897 7.455938525514513 19.86118422403077 3.038361634078441 0 -1 2
783 0 2 0.5897 8.63376417943711 16.261737123124913 0.9202895615561685 0 -3 1
317 0 2 0.5897 8.636433857973735 19.695155579787155 2.079411283941828 0 -1 2
1609 0 1 -1.1794 6.938776799406686 17.373031824894923 1.4430939069081328 0 1 0
1611 0 2 0.5897 7.307311342122735 18.165046391562697 1.872002189776209 0 1 0
316 0 1 -1.1794 8.1067992761086 19.20115796447803 2.7559208776728554 0 -1 2
898 0 1 -1.1794 10.465996073331322 16.598529332544555 2.7663744491364493 0 -3 1
900 0 2 0.5897 10.985409662604566 17.416064495450403 2.6692559486414202 0 -3 1
1617 0 2 0.5897 11.589205786056011 18.23752175108746 0.6536805735121046 0 -3 -1
353 0 2 0.5897 9.371587059791961 19.236624828633595 4.027480145976072 0 -2 -1
1771 0 1 -1.1794 4.128169490423758 1.7341554479285788 4.39668938930833 0 0 0
1772 0 2 0.5897 3.412326838214539 2.3577829845559055 4.671125967478522 0 0 0
2016 0 2 0.5897 1.088322441201377 2.2580092579659863 5.520907137255987 1 -2 3
2014 0 1 -1.1794 1.0792242090768198 2.4130346253655683 4.547791404685586 1 -2 3
1773 0 2 0.5897 4.089827773642437 1.0440868822748497 5.050832477642078 0 0 0
2127 0 2 0.5897 2.2966423817653556 2.2166650825860774 7.9509234562965885 0 1 -1
2125 0 1 -1.1794 1.9737393238939138 2.8173136278284225 7.228377640132323 0 1 -1
2126 0 2 0.5897 2.7201969162683075 3.241907857016933 6.801693393866037 0 1 -1
504 0 2 0.5897 5.191483935881244 0.30229103916309463 7.839910757422101 1 1 -1
1147 0 1 -1.1794 6.228853653801239 3.4594704939303194 7.17040225817124 0 0 0
503 0 2 0.5897 5.0894031817559915 1.8453592603311066 8.028873331311765 1 1 -1
1149 0 2 0.5897 5.481089151344107 3.9161107253968304 6.700289829615937 0 0 0
1808 0 2 0.5897 8.895507008959592 3.7094875067592397 5.1265307964130855 0 -1 1
141 0 2 0.5897 7.467547186936742 1.5450605490277145 4.606408802702247 0 1 1
1148 0 2 0.5897 6.446233621703528 2.792650127777457 6.46422801061339 0 0 0
140 0 2 0.5897 8.452799314523459 1.887478709824434 5.8318921046725825 0 1 1
139 0 1 -1.1794 7.5345718431103474 1.6974598789245194 5.582451589902598 0 1 1
1045 0 1 -1.1794 10.077842968308177 1.9987666228530008 6.207678996523296 0 0 -2
1047 0 2 0.5897 10.399038533314252 1.1409346434445693 6.462791316882169 0 0 -2
1046 0 2 0.5897 9.982322684701767 2.496889934658211 7.0626497113784685 0 0 -2
1736 0 2 0.5897 11.79981310938892 2.9461000629237972 5.6702827481759615 1 0 -2
2026 0 1 -1.1794 12.121855268404406 0.16581895684102071 7.472610548302177 0 0 3
1267 0 1 -1.1794 3.8176190116563626 4.515275179387455 5.431695482405191 0 0 -2
1635 0 2 0.5897 0.8995173477068754 4.562001580963387 4.691848613793467 0 -1 3
1268 0 2 0.5897 4.505427912245279 4.438745030233965 4.73926883529944 0 0 -2
1633 0 1 -1.1794 1.016391361668828 5.310114697897402 5.268598919332892 0 -1 3
1269 0 2 0.5897 3.351348128636857 5.371182231473849 5.260486444991177 0 0 -2
266 0 2 0.5897 1.8563408551920864 6.594018537992876 4.531335399312478 0 0 -1
297 0 2 0.5897 4.131608091445116 7.880234918331141 5.385257646488736 0 0 0
1073 0 2 0.5897 1.1555650776182862 5.194589504342976 7.177403380012542 0 -1 -1
296 0 2 0.5897 5.221554570850147 7.3592496076452685 6.4149108795388985 0 0 0
864 0 2 0.5897 4.994505971401904 5.88494004685249 8.185228559177393 0 0 1
1072 0 1 -1.1794 1.2799195436909159 5.540345929079622 8.111264955496932 0 -1 -1
862 0 1 -1.1794 5.566736241171285 6.653209112317208 8.07737843331481 0 0 1
295 0 1 -1.1794 5.045712450292149 7.997656312511887 5.684996196734136 0 0 0
2250 0 2 0.5897 8.188461369275604 7.296873311015945 4.372533245718882 1 1 0
1809 0 2 0.5897 8.623752922925133 5.167190993037524 5.665420658081965 0 -1 1
2105 0 2 0.5897 11.241619244097272 6.861737044314245 7.570173574755134 0 0 0
1587 0 2 0.5897 7.416031823376446 6.235440983590065 7.741384928519121 0 1 -1
1807 0 1 -1.1794 9.117144597665655 4.673949542079836 4.964326953689818 0 -1 1
1586 0 2 0.5897 9.036861208055889 6.343026768021146 7.862963160018692 0 1 -1
1743 0 2 0.5897 10.80574336681343 5.30524571524138 5.669046133910938 1 1 1
1741 0 1 -1.1794 11.376926166486001 5.715447113338907 6.387774847692692 1 1 1
1585 0 1 -1.1794 8.267444928913463 6.181064724306388 7.248561241226252 0 1 -1
2249 0 2 0.5897 6.647800194001709 7.488819888220006 4.424544122147203 1 1 0
1852 0 1 -1.1794 3.7412136014212174 9.665554313924654 7.570800554490872 0 2 0
1853 0 2 0.5897 3.9265376915518995 8.999433851687991 6.940702556809794 0 2 0
2070 0 2 0.5897 1.4125427417678078 9.91999926404179 4.8258898824447405 0 -3 1
1552 0 1 -1.1794 6.036420643653579 10.992061017628062 4.726900770390722 0 -1 0
1854 0 2 0.5897 3.1489165651823243 9.143721924716573 8.121825615134528 0 2 0
1887 0 2 0.5897 1.1319196416168946 11.115883246331165 6.8219124602604175 0 1 1
1886 0 2 0.5897 0.935353551451678 9.574281727517421 7.226854554314405 0 1 1
1002 0 2 0.5897 5.080715444589426 10.791557346090457 7.616856749628901 1 -2 2
1885 0 1 -1.1794 0.7905378653367325 10.258280548170438 6.514271675182722 0 1 1
1553 0 2 0.5897 6.050291283666021 11.030729897861676 5.727028117495326 0 -1 0
1000 0 1 -1.1794 5.951083952873817 11.291039957558942 7.512758524750458 1 -2 2
2264 0 2 0.5897 3.455391330148856 11.710395554125439 4.625015347654687 1 0 0
89 0 2 0.5897 8.977291018060873 11.146323085245204 4.252592161154568 0 -3 0
393 0 2 0.5897 10.210669203301737 8.833777842050422 5.970485530605292 0 3 1
90 0 2 0.5897 9.048884607379934 9.595058770871185 4.4517109144284035 0 -3 0
392 0 2 0.5897 10.955100597298625 8.276697257364441 4.71106942385137 0 3 1
391 0 1 -1.1794 10.042719666573591 8.330955005725786 5.202566456175893 0 3 1
1554 0 2 0.5897 6.9454528218425535 10.572995666127525 4.51842366806864 0 -1 0
14 0 2 0.5897 8.813343539855879 11.139801962034534 6.978891733722866 0 -2 -1
1107 0 2 0.5897 7.939822632246702 8.386881593382881 7.490795137333773 0 0 -1
1105 0 1 -1.1794 8.093866930678864 9.335618847098344 7.517594607576819 0 0 -1
1106 0 2 0.5897 7.226515695939846 9.736479303100868 7.664506229049403 0 0 -1
15 0 2 0.5897 10.233606345435984 11.536483936099 6.835811529716081 0 -2 -1
13 0 1 -1.1794 9.394215467683994 11.716363956880762 6.411416247642405 0 -2 -1
2265 0 2 0.5897 4.325661005661319 13.065752162448357 4.7147774025914595 1 0 0
2263 0 1 -1.1794 3.4330413075337813 12.663989360955522 4.8230790930950675 1 0 0
1883 0 2 0.5897 1.90461536625698 13.689071486796177 4.27233184144559 0 -2 1
1619 0 2 0.5897 2.3948468791042674 13.013774964618964 6.437609503567351 0 -1 -2
1618 0 1 -1.1794 1.6887828958980504 12.820918256960047 7.034492194729599 0 -1 -2
1620 0 2 0.5897 1.1411655902872173 13.517778871905128 7.301989599056532 0 -1 -2
531 0 2 0.5897 5.082311745959675 14.548066401351521 6.527091022302582 0 -1 3
529 0 1 -1.1794 5.693709205754676 13.824132413707437 6.410102197482699 0 -1 2
1001 0 2 0.5897 5.695339137263991 12.216116032417395 7.272487676596406 1 -1 2
469 0 1 -1.1794 0.9378275467435434 15.060051287251579 8.123821442042278 1 0 0
300 0 2 0.5897 1.2402841949179324 15.796688984313313 5.0967512983736665 0 -2 0
2053 0 1 -1.1794 3.7615917373526977 15.856620942824255 7.054825323373344 0 -1 -1
2054 0 2 0.5897 2.9105896095854633 15.99722411050673 6.606997741847552 0 -1 -1
470 0 2 0.5897 0.8704017653855074 16.006009767361036 7.841859455310612 1 0 0
271 0 1 -1.1794 11.296572969028729 13.568526565133375 4.497181868717936 0 2 -1
2051 0 2 0.5897 7.201699567660995 12.720931734424363 4.234535663207627 0 0 1
530 0 2 0.5897 6.504352463179243 14.317736397931778 6.401071269694398 0 -1 3
272 0 2 0.5897 10.360164970078962 13.624013583641156 4.334091158487938 0 2 -1
273 0 2 0.5897 11.397492282214241 12.636911243571136 4.702553915241177 0 2 -1
999 0 2 0.5897 8.659444760069457 13.372002992427682 6.690033448621195 1 -1 0
997 0 1 -1.1794 8.436264255339887 14.282379240131025 6.987268413330782 1 -1 0
998 0 2 0.5897 9.184695425790885 14.586515451028216 7.535416015908717 1 -1 0
35 0 2 0.5897 9.10410830083254 15.60563583046741 5.539792004093238 0 0 -1
1029 0 2 0.5897 10.794593404327063 15.862301279584862 8.327906342030747 1 1 0
2055 0 2 0.5897 3.6136470142245196 16.424694624855764 7.84849926914964 0 -1 -2
298 0 1 -1.1794 1.357383953879175 16.539337477983 5.736339749155554 0 -2 1
299 0 2 0.5897 1.4856315577749148 17.332152714329684 5.2240120460446535 0 -2 1
841 0 1 -1.1794 3.8304331509587866 19.347194275101337 5.61634842176434 0 0 -2
843 0 2 0.5897 3.5761824455747573 18.957862529285357 6.454753489098213 0 0 -2
842 0 2 0.5897 4.490863861762865 18.697551762882412 5.348871577332446 0 0 -2
1524 0 2 0.5897 1.352689902324043 19.83346293140289 6.047847711656695 0 -3 -2
132 0 2 0.5897 5.017808927929765 16.803361374239504 6.101254095657097 0 3 -3
130 0 1 -1.1794 5.532341019434755 17.289568362748614 5.456225858846621 0 3 -3
131 0 2 0.5897 5.653522063522813 16.658775330808858 4.734477028767675 0 3 -3
1522 0 1 -1.1794 0.7863828783469111 20.0133600468871 6.817375301570468 0 -3 -2
53 0 2 0.5897 7.067671458265636 20.024960700976454 6.237109704224105 0 -2 1
54 0 2 0.5897 6.645010509562252 18.50720031686165 6.290846308058632 0 -2 1
52 0 1 -1.1794 6.734530337166998 19.32696211475335 6.831980003005946 0 -2 1
2027 0 2 0.5897 11.862178332542952 19.2825169367328 7.705270817528709 0 -1 3
36 0 2 0.5897 9.889420461688024 16.28126227926272 4.318029367624556 0 0 -1
824 0 2 0.5897 11.529317066001191 19.726217219223155 4.563664991963391 0 0 0
352 0 1 -1.1794 9.73545322384273 19.381149288315722 4.907748057138822 0 -2 -1
34 0 1 -1.1794 9.760230513470788 16.268933558545093 5.261675879622402 0 0 -1
354 0 2 0.5897 9.787642209497564 18.575252667010645 5.411888356483889 0 -2 -1
780 0 2 0.5897 11.491428325515841 16.302087773101995 6.216443933724481 0 -3 1
728 0 2 0.5897 7.843608502566986 19.11029770286455 8.085891349232702 1 -1 1
502 0 1 -1.1794 4.778565359988649 0.9898838584453554 8.386970943340533 1 1 -1
2 0 2 0.5897 1.6161047663675552 0.43248517228424876 8.392102907036525 0 -2 3
1 0 1 -1.1794 2.1088939900741863 0.9200813116325783 9.130570989793664 0 -2 3
218 0 2 0.5897 4.84337222745487 2.649443850353838 11.96733679518972 1 0 -1
217 0 1 -1.1794 4.549556314438835 3.5649397007851804 11.920607786947105 1 0 -1
1249 0 1 -1.1794 5.443086843394636 0.4516545928872256 11.096780739355685 1 0 0
1250 0 2 0.5897 5.159500622596294 0.35935102360226634 10.180673819461676 1 0 0
1251 0 2 0.5897 6.328700858449283 0.8912401126378645 11.128434033286377 1 0 0
1329 0 2 0.5897 5.573259336080689 3.9963213682673984 10.192935770149225 0 0 0
3 0 2 0.5897 3.032228741547819 0.7071912241099514 8.974977152830853 0 -2 3
1281 0 2 0.5897 1.3068590223067889 1.8133235787468547 10.50256325585696 0 0 0
735 0 2 0.5897 7.392312910821963 2.5924365054919987 10.88084795892889 1 1 -2
1858 0 1 -1.1794 9.917302850317961 3.6464321728684808 8.46810002345085 0 -1 -4
123 0 2 0.5897 10.720907602955124 0.14445854517187626 10.280307217065392 0 -1 -2
121 0 1 -1.1794 9.862231710701426 0.20448615497251985 10.584917650549048 0 -1 -2
734 0 2 0.5897 8.495386223384784 1.542711058118758 11.20920511110384 1 1 -2
733 0 1 -1.1794 7.7079214389546955 1.9314284168072162 11.552622182392877 1 1 -2
1599 0 2 0.5897 10.574102648062855 0.689394296824995 12.237381773005493 0 -4 0
1859 0 2 0.5897 10.388170827718175 3.1506919279375967 9.112685556948696 0 -1 -4
1071 0 2 0.5897 11.079585378349162 3.5763494010417456 11.777088973474235 0 1 0
1069 0 1 -1.1794 11.28372761059672 3.543171901965209 10.823215754591391 0 1 0
1070 0 2 0.5897 11.944118413468447 2.839028078805773 10.676828069494928 0 1 0
1860 0 2 0.5897 9.03801747619397 3.8948515741945884 8.807933734294194 0 -1 -4
1328 0 2 0.5897 6.395111759331493 3.8767614896981417 8.962170279156503 0 0 0
1327 0 1 -1.1794 6.491996297564096 3.9840881186049155 9.918003953963927 0 0 0
1074 0 2 0.5897 0.6536553479490596 5.256119778917298 8.803778304069738 0 -1 -1
863 0 2 0.5897 5.4456973715668235 7.344662062569812 8.703126663175462 0 0 1
2258 0 2 0.5897 1.368770606466383 7.520449317188184 8.377519104180113 1 0 -2
2144 0 2 0.5897 3.612539070611106 5.458936028359139 10.071446313181285 0 -1 2
2143 0 1 -1.1794 3.591545570476289 4.987289262120916 9.21110521762037 0 -1 2
2145 0 2 0.5897 2.659443865234616 5.15866586675061 8.909956763348834 0 -1 2
1734 0 2 0.5897 2.8922102164304286 4.561255174785994 11.88073718976044 1 0 0
1732 0 1 -1.1794 1.9846325355278251 4.788341840642595 12.055942767928165 1 0 0
525 0 2 0.5897 2.994771241098479 7.30046515783784 12.219695787517244 0 0 0
1733 0 2 0.5897 1.4356759037886482 4.119049324855511 11.665111430230276 1 0 0
1306 0 1 -1.1794 4.385550725672808 6.543227228213142 11.604592290266988 0 -1 0
1308 0 2 0.5897 4.997319957323191 7.027381224390613 11.074697887726286 0 -1 0
523 0 1 -1.1794 2.33008144167474 8.000589528337217 12.424319712216478 0 0 0
1307 0 2 0.5897 4.927467153374791 6.199497698784569 12.364960612427756 0 -1 0
1336 0 1 -1.1794 11.810987390847039 6.397031650403036 11.00398558725458 0 -1 -1
2104 0 1 -1.1794 10.95655429806169 7.382619531833285 8.404891204792156 0 0 0
978 0 2 0.5897 7.4509495250750435 6.790573747350931 10.161717679417698 1 0 1
977 0 2 0.5897 7.769348228578696 5.337103265566905 10.377388110492268 1 0 1
976 0 1 -1.1794 8.096729998260816 6.234300418107468 10.600352977950967 1 0 1
1758 0 2 0.5897 10.838920821831064 7.793801184004423 11.475601076185908 1 -1 1
1337 0 2 0.5897 11.618906551691827 6.482450386681112 10.065016519722525 0 -1 -1
1338 0 2 0.5897 11.705815755215399 5.4464321143570205 11.134548428296178 0 -1 -1
2259 0 2 0.5897 1.0804230519101874 8.562000628177303 9.446974875005782 1 0 -1
2257 0 1 -1.1794 1.6175699289082375 8.384009501807505 8.651594153060806 1 0 -1
1894 0 1 -1.1794 3.567901948226024 10.167960325222667 11.191786614196939 0 0 1
1562 0 2 0.5897 5.217597094095783 9.105025861707604 10.285141575301074 0 1 -1
1895 0 2 0.5897 3.0912969970799358 10.737619373020232 10.51499301763443 0 0 1
1896 0 2 0.5897 4.222465524005322 10.762839754644538 11.587360197956448 0 0 1
524 0 2 0.5897 2.62173965047353 8.707413838814194 11.788274028076081 0 0 0
66 0 2 0.5897 6.07514964483243 11.737334818940825 11.904948703738238 0 -1 -1
1792 0 1 -1.1794 2.040001251684784 11.773917429535143 9.550064096762348 0 -1 0
1561 0 1 -1.1794 5.875439039626364 8.417079431251567 10.00400411966334 0 1 -1
2106 0 2 0.5897 11.5892347010568 8.099723676589841 8.372537576145673 0 1 0
1058 0 2 0.5897 6.8111552567091715 11.470586875359599 9.456105800722304 0 4 -1
1874 0 2 0.5897 9.554366949677267 9.803324312189881 8.696652320538 0 1 0
1757 0 2 0.5897 9.548028492091046 8.45559961493013 11.80414250068644 1 -1 1
1756 0 1 -1.1794 10.443881242271896 8.681545469574436 11.506810560920828 1 -1 1
1563 0 2 0.5897 6.600242356731076 8.581422062779405 10.637347764345597 0 1 -1
1873 0 1 -1.1794 9.84237413802528 10.369962755455978 9.42351904973511 0 1 0
1875 0 2 0.5897 10.214533421964212 9.712329824071494 10.058232414923637 0 1 0
1582 0 1 -1.1794 7.799906462293817 8.69339126882476 11.901030934648144 0 0 -1
77 0 2 0.5897 10.868723232292945 11.724018213081319 12.004598415292287 0 1 -3
1584 0 2 0.5897 8.09898241082108 9.625619362514296 11.916021270225302 0 0 -1
1059 0 2 0.5897 8.259046376714881 11.232702053152739 9.942604046782094 0 4 -1
1057 0 1 -1.1794 7.426507467776136 11.501863055704547 10.245612167824724 0 4 -1
833 0 2 0.5897 10.931496765479396 11.40218904269925 9.146238016211194 0 -1 1
1794 0 2 0.5897 2.178921005622234 12.535723908733633 10.155156683490544 0 -1 0
1793 0 2 0.5897 2.138716980988349 12.197979226780564 8.616299168092821 0 -1 0
2010 0 2 0.5897 5.977350693963621 15.424833763796832 9.515009720122878 0 0 -1
2009 0 2 0.5897 4.5768014553955245 15.861812176829027 10.065710404366392 1 0 -1
1068 0 2 0.5897 2.6810549377282697 15.101267087808674 10.862425619918566 0 -1 3
1066 0 1 -1.1794 2.67893414713618 15.800425026626321 10.19378760048795 0 -1 3
1067 0 2 0.5897 2.1439629048387028 15.515268305443993 9.447498580219598 0 -1 3
1052 0 2 0.5897 6.084510705004038 15.009152079187887 11.478044250808427 0 -1 0
613 0 1 -1.1794 3.1569472153471896 13.333355233904786 11.53595785530343 0 2 2
614 0 2 0.5897 4.112066884210596 13.441572724637021 11.743055977986941 0 2 2
1051 0 1 -1.1794 5.892026173547554 14.19974874028159 12.012184267850737 0 -1 0
615 0 2 0.5897 2.659022557472426 13.13112530464748 12.317476545705834 0 2 2
76 0 1 -1.1794 11.711868402144871 12.136204482111875 11.803763861156868 0 1 -3
1028 0 2 0.5897 11.109906515395535 14.370859217063424 8.491160729107529 0 1 0
832 0 1 -1.1794 11.438070767070188 12.231616756865169 8.950276853291673 0 -1 1
1060 0 1 -1.1794 7.322496943422773 14.244167571182079 9.443645315294278 0 2 -1
1062 0 2 0.5897 7.8301621970884705 13.478967405743177 9.782747829038303 0 2 -1
1061 0 2 0.5897 7.533497383336791 14.221272927991295 8.490901825694591 0 2 -1
1811 0 2 0.5897 10.150075444369516 14.846677363545371 10.356812157885155 0 -1 0
1027 0 1 -1.1794 10.407668353408992 15.02453169676924 8.534081384774163 0 1 0
1810 0 1 -1.1794 10.28309934536698 14.827340949130061 11.339025949827183 0 -1 0
1812 0 2 0.5897 10.990991043620383 14.233228703958725 11.535762286882552 0 -1 0
2064 0 2 0.5897 8.318513442352048 16.010582804004354 10.045883552498344 0 0 -2
834 0 2 0.5897 11.795352628409546 12.535505949137276 9.768898833854307 0 -1 1
2240 0 2 0.5897 4.979253676798128 17.701151255152013 9.059857722773113 1 0 1
2008 0 1 -1.1794 5.47073848161694 16.206303927458013 9.864307847353903 1 0 -1
2241 0 2 0.5897 3.5492850892341647 18.369833559501615 9.407011864640879 1 0 1
2239 0 1 -1.1794 4.164548549511657 18.209660847590488 8.724614795278592 1 0 1
2056 0 1 -1.1794 6.187277468597997 17.94038013200971 12.182039183714284 0 -1 0
806 0 2 0.5897 0.8702577656082995 18.457413801139054 9.371691497561027 0 0 0
2058 0 2 0.5897 6.102254418973249 18.79897689019713 11.68130788144236 0 -1 0
2099 0 2 0.5897 1.3494694921157881 19.260632202705217 11.21874589910559 0 1 0
2100 0 2 0.5897 1.6699346205414236 17.722360130053417 11.060006005940282 0 1 0
2098 0 1 -1.1794 1.8266645249612972 18.63352306032714 10.706628910417741 0 1 0
2057 0 2 0.5897 6.501211112539731 17.291420786113772 11.550023106762902 0 -1 0
122 0 2 0.5897 9.220032691812289 19.995376796210994 9.858952678926267 0 -2 -2
829 0 1 -1.1794 11.028553620095146 17.986765614524376 8.519828746218144 0 0 1
727 0 1 -1.1794 8.392289169259863 19.075857488298514 8.897338556689414 1 -1 1
729 0 2 0.5897 8.151814143771826 18.305768630679086 9.421461447002008 1 -1 1
831 0 2 0.5897 10.143494392576917 18.31943520123293 8.770794959903599 0 0 1
830 0 2 0.5897 11.575850130403252 18.15655569556112 9.264898178504382 0 0 1
2063 0 2 0.5897 9.241638514323414 16.925943782487227 10.862800164045044 0 0 -2
2062 0 1 -1.1794 8.34938850626602 16.81838002514647 10.527067498336677 0 0 -2
18 0 2 0.5897 11.3263872165883 18.41300092367638 11.622055983687714 0 -3 -1
16 0 1 -1.1794 10.657030513028152 17.81831389437495 11.885132034930564 0 -3 -1
17 0 2 0.5897 11.140563462838747 17.054459464252602 12.25164441535735 0 -3 -1
32 0 2 0.5897 1.283727808568787 2.1642930346464433 15.074987995625778 0 -2 -1
33 0 2 0.5897 1.5438079043673334 2.0267848031014997 13.592777033078688 0 -2 0
219 0 2 0.5897 4.798803384201704 3.97705363770955 12.768665976096843 1 0 -1
31 0 1 -1.1794 1.2385030599737286 2.6908887395131926 14.276506464764868 0 -2 -1
306 0 2 0.5897 4.919982774481631 0.7226247717585083 12.886200984411023 0 0 -1
498 0 2 0.5897 2.725642133657901 0.6336518320583115 12.725207656849228 1 0 1
305 0 2 0.5897 4.614939428730456 1.2471076443382807 14.29419646835898 0 0 -1
304 0 1 -1.1794 4.3099483085643175 0.6484002449117786 13.598182221334085 0 0 -1
1378 0 1 -1.1794 5.30655674002951 2.5519415279187125 15.569725472354417 0 0 3
1120 0 1 -1.1794 1.5935560021748199 1.0114263227780216 16.326374655293865 0 -1 -1
1122 0 2 0.5897 1.6837354651917755 0.16976449048538975 15.957044051931272 0 -1 -1
1380 0 2 0.5897 4.811460647754288 3.3672681085442995 15.653335581752916 0 0 3
2238 0 2 0.5897 2.4340908949041937 3.548256701671733 15.680084036425306 1 2 -1
1379 0 2 0.5897 6.110493750912826 2.782651027048628 15.01809131533958 0 0 3
496 0 1 -1.1794 1.7558751151564447 0.5811270579449686 12.659323964966788 1 0 1
2236 0 1 -1.1794 2.9488139309687456 3.9550859051272003 16.38997527907226 1 2 -1
1597 0 1 -1.1794 11.044747637236625 1.1495593859582127 12.920141797222016 0 -4 0
1644 0 2 0.5897 7.753379700867171 1.782578568114525 14.584424177659853 0 3 -1
1643 0 2 0.5897 7.533922479290821 2.769736241358155 13.447762692205059 0 3 -1
1642 0 1 -1.1794 7.609351319975044 2.7398130156231635 14.402901590883324 0 3 -1
636 0 2 0.5897 7.260558510358933 0.010367240179281367 15.819098897828727 0 0 -1
1363 0 1 -1.1794 11.304089648409061 2.358040194849909 15.647215060219521 0 -2 -2
1364 0 2 0.5897 11.428631344847016 1.4452577981730679 15.533314818361259 0 -2 -2
591 0 2 0.5897 10.908466742655405 3.116206797469572 13.865220968444794 0 2 3
120 0 2 0.5897 10.150177033360773 3.6307776832770484 16.336933845212442 0 0 1
119 0 2 0.5897 8.707085435109937 3.5776092109452797 15.7335416868913 0 0 1
1598 0 2 0.5897 10.98747195400303 0.45976707499506375 13.64169684794573 0 -4 0
589 0 1 -1.1794 10.827590337635856 3.938433051645709 13.334643533208505 0 2 3
634 0 1 -1.1794 8.008627171132307 0.10354190284444002 15.19756424915037 0 0 -1
324 0 2 0.5897 1.3714894340217807 5.524869541877714 13.42320969737258 0 1 1