LAMMPS data file via write_data, version 23 Jun 2022, timestep = 7585000

2268 atoms
2 atom types

0.5081047214633756 46.94259427853622 xlo xhi
0 20.047001 ylo yhi
0 20.857 zlo zhi

Masses

1 1.008
2 15.999

Atoms # full

558 0 2 0.5897 5.442909362002304 3.14706528261841 3.7005259844882805 0 0 -1
1494 0 2 0.5897 2.0533623452282255 1.211001640794262 0.9034775954047329 1 1 1
763 0 1 -1.1794 5.328799267965091 2.3932395363052845 1.9664290232335278 0 0 1
765 0 2 0.5897 4.441490196415565 1.9927133425889443 1.8776612892393671 0 0 1
1492 0 1 -1.1794 2.6153298882472416 1.9216376170320961 1.04233186451366 1 1 1
1493 0 2 0.5897 3.061988071765226 2.200597198966231 0.20655052338560395 1 1 1
875 0 2 0.5897 2.7991877101845533 0.5966347151433944 3.240710964149167 0 1 0
764 0 2 0.5897 5.965245502884596 1.7059434312316848 2.0832969336380174 0 0 1
1058 0 2 0.5897 1.3989593582267825 3.114334737713447 1.7893086469684405 0 3 0
1057 0 1 -1.1794 0.7196053655653714 3.5637724700121858 2.385543522798332 0 3 0
1120 0 1 -1.1794 0.6792294113279072 0.05579862703087317 1.358401665280997 0 -1 0
734 0 2 0.5897 7.273913620572459 0.5736432616070619 3.2786762777395215 1 1 -1
1592 0 2 0.5897 7.99602185602193 2.091185792482096 1.3747121400280748 0 1 0
1597 0 1 -1.1794 10.851965679377464 1.2706625664070108 2.489171313087473 0 -2 1
1598 0 2 0.5897 10.66243585436841 2.2259818113190146 2.6797437912921236 0 -2 1
1593 0 2 0.5897 9.112021784746323 2.861261099810923 0.6748560896880522 0 1 0
1591 0 1 -1.1794 8.154502022781703 2.626092324203436 0.6017277588646758 0 1 0
733 0 1 -1.1794 7.72841672477629 0.639359143829219 2.4254866896963327 1 1 -1
1599 0 2 0.5897 11.175634757587169 1.2697481498280945 1.5356904476292557 0 -2 1
1552 0 1 -1.1794 10.74257167713095 3.5249930529377913 0.005088024884358333 0 0 0
1511 0 2 0.5897 7.238081172731226 3.959197111566364 1.0741450052945325 1 1 0
1554 0 2 0.5897 11.429863744574577 3.899375816842891 0.6278374597092315 0 0 0
1030 0 1 -1.1794 10.325178961621203 3.9660047631769153 3.974021935788249 0 1 1
354 0 2 0.5897 4.213025750071083 5.017538344609359 3.0943166039929397 0 1 -1
1002 0 2 0.5897 4.291655669706299 6.646424286868485 1.233765015676299 1 -2 2
1000 0 1 -1.1794 4.4080991820096305 7.020824055307813 0.3556909919353229 1 -2 2
352 0 1 -1.1794 4.8793977069039 5.682493336340923 2.802253335756568 0 1 -1
353 0 2 0.5897 5.036390383717152 6.166168653540833 3.6361894033758078 0 1 -1
28 0 1 -1.1794 1.4761259261797006 5.8941284288546205 3.439398252349635 0 -1 1
95 0 2 0.5897 1.059157094468131 6.534619316932819 1.8036168312625118 0 1 0
30 0 2 0.5897 1.4244667413555054 5.02263176439682 2.921708574113513 0 -1 1
94 0 1 -1.1794 0.908368119116181 6.94205262633484 0.9504767949742103 0 1 0
1514 0 2 0.5897 6.104260462637293 7.677156159966679 0.2642179010867832 0 0 0
1001 0 2 0.5897 3.7421658838668996 7.748690190603044 0.358534069613703 1 -1 2
96 0 2 0.5897 0.9764381630838246 6.2023134833878135 0.3260737410300277 0 1 0
29 0 2 0.5897 2.12157531684028 5.714496539750838 4.125361550560634 0 -1 1
1512 0 2 0.5897 6.366525339492102 5.159316872731393 1.7295535568554483 0 1 0
1510 0 1 -1.1794 6.827191512016664 4.812630313480974 0.9386786717959116 1 1 0
643 0 1 -1.1794 7.447500026626649 7.387628312810176 3.707871274046049 0 1 2
1633 0 1 -1.1794 10.763122392256282 5.890070705897939 2.2773070439601617 0 -1 2
1032 0 2 0.5897 10.480550009569283 4.745341970191017 3.3394961353126282 0 2 1
1635 0 2 0.5897 10.315128020809055 6.035083285353226 1.4582472675830305 0 -1 2
1107 0 2 0.5897 8.26225577407295 5.805351228675344 0.686403973590967 0 -1 0
1105 0 1 -1.1794 8.933873146292967 6.370430353308852 0.2575916325135042 0 -1 0
1634 0 2 0.5897 11.603631286798155 6.328169931606629 2.112875374097043 0 -1 2
645 0 2 0.5897 8.28205791106999 7.429214325079425 4.118480591383703 0 1 2
1560 0 2 0.5897 3.7494389430606465 9.975016016410763 2.000845024797166 0 0 0
1558 0 1 -1.1794 3.3202347187325105 9.205459691246038 2.4037605636423587 0 0 0
1559 0 2 0.5897 2.494109144892617 9.15826716312457 1.9453714394749397 0 0 0
1100 0 2 0.5897 0.9618764293467293 11.314288429389013 2.9348904643562745 0 -1 0
70 0 1 -1.1794 4.332134949557383 11.57996451919212 1.167864921860611 0 1 0
48 0 2 0.5897 4.511405983568758 8.26756149571121 3.5990703257833347 0 0 0
855 0 2 0.5897 2.592430651860983 9.536125265557432 4.082510548104817 0 -1 -2
72 0 2 0.5897 4.907952660933667 11.156507715188496 0.552353182447732 0 1 0
644 0 2 0.5897 7.63041356309753 8.07620123282281 3.019075798675619 0 1 2
1580 0 2 0.5897 6.461371496914867 10.53439221359105 3.758257600027108 0 2 0
324 0 2 0.5897 7.071424700016033 10.441993645550424 1.678481215167427 0 0 0
322 0 1 -1.1794 6.849839591454333 9.689881055972903 2.225773450802939 0 0 0
323 0 2 0.5897 6.640271943187391 8.96253661306387 1.5663187532425398 0 0 0
1356 0 2 0.5897 9.015606797723894 9.338616691569245 2.296432990988038 0 0 -1
1354 0 1 -1.1794 9.95004638676533 9.26503460676794 2.3923992911038825 0 0 -1
1355 0 2 0.5897 10.112938311580363 8.391626243984218 2.781444575249347 0 0 -1
1638 0 2 0.5897 10.427528475279475 9.181789477158455 0.8303888877686081 0 -1 1
891 0 2 0.5897 11.50829482736082 11.731458784994686 1.6671502205899849 0 0 1
307 0 1 -1.1794 8.111678312356375 11.524672736404243 0.3591966657449193 0 -1 2
258 0 2 0.5897 10.052159936482349 10.950924993841953 3.5297983878719372 0 1 -1
308 0 2 0.5897 9.008567631507445 11.810124145464753 0.5756924393753591 0 -1 2
71 0 2 0.5897 3.8699223877334057 12.151794807289164 0.5859789802328027 0 1 0
1099 0 1 -1.1794 1.180009751469211 12.229314763339483 3.2699806600795256 0 -1 0
1101 0 2 0.5897 2.1546183123831777 12.201129755858908 3.430513703567079 0 -1 0
14 0 2 0.5897 2.077608735921906 14.225902729358562 2.4352951070193187 0 -1 0
15 0 2 0.5897 1.953895190571452 14.889655469575542 3.82546736225997 0 -1 0
327 0 2 0.5897 5.479081806323232 13.03667939751392 1.4058283005409278 0 0 -1
13 0 1 -1.1794 2.0630566813040936 15.086214404366553 2.8874476521927708 0 -1 0
1825 0 1 -1.1794 2.5264642660215824 13.905661741421673 0.572341589471175 0 0 1
355 0 1 -1.1794 3.9022273907746343 12.616499288817941 3.912062349313311 0 1 1
325 0 1 -1.1794 6.215212221188979 13.558566025245948 1.7889188362794757 0 0 -1
1772 0 2 0.5897 5.24170889405072 15.06272006170434 1.5681293829931489 0 -1 1
356 0 2 0.5897 4.222178317394105 13.47099938823776 4.129377465951944 0 1 1
1773 0 2 0.5897 3.997786293207133 15.7840590713604 2.244834065964386 0 -1 1
1771 0 1 -1.1794 4.712349450911473 15.846951750085966 1.6432656535589418 0 -1 1
357 0 2 0.5897 4.643557743363338 12.030999659706284 3.989835435681659 0 1 1
1827 0 2 0.5897 2.7305448451401437 14.666000762797717 0.05326762012559847 0 0 1
1826 0 2 0.5897 1.7651605990348456 13.454488743460239 0.1652067773401976 0 0 1
836 0 2 0.5897 0.5832872047771914 12.333910200508067 1.4954513926961803 0 -1 0
326 0 2 0.5897 6.931866712352764 13.591528031852967 1.104965541394286 0 0 -1
844 0 1 -1.1794 11.032342799842796 15.460462585288951 2.818088130442756 0 1 -1
1547 0 2 0.5897 7.587597369207456 13.410595227417055 3.366002973980517 0 -1 -1
889 0 1 -1.1794 10.769561799665494 12.271710785615463 1.2942951422849245 0 0 1
890 0 2 0.5897 11.2182084254875 13.024097925047833 0.8813317652448283 0 0 1
122 0 2 0.5897 9.688012697029045 14.802667150303536 1.6978954932392736 0 -1 1
121 0 1 -1.1794 8.921527409498085 14.604157751035178 1.0923818124469595 0 -1 1
846 0 2 0.5897 11.545811779261058 14.726749477179565 3.2063736519929993 0 1 -1
845 0 2 0.5897 10.378608943230706 15.568348884347724 3.513218891367651 0 1 -1
123 0 2 0.5897 9.322444156175475 14.07295321833551 0.3960395794623354 0 -1 1
827 0 2 0.5897 8.15692286225396 15.90562912081964 0.46426816305044477 0 -2 0
380 0 2 0.5897 1.4383858867216865 16.148972025704296 1.513379481249889 0 0 -2
874 0 1 -1.1794 3.2117306963396803 19.811249290736054 2.971017142760726 0 -1 0
379 0 1 -1.1794 1.3750727131861114 16.97527779662023 1.0012930250211467 0 0 -2
2120 0 2 0.5897 3.6170933610342693 18.93228575759957 1.1080678956141996 0 0 0
2119 0 1 -1.1794 3.8964763807450407 18.55880635625425 0.2611606133096462 0 0 0
2121 0 2 0.5897 4.194633846587015 17.70379421268286 0.5200964327614354 0 0 0
876 0 2 0.5897 2.6712482030148705 19.13895359745024 3.3506140589424045 0 -1 0
2024 0 2 0.5897 4.646276178166542 19.704255928690586 3.9301001658835815 0 -2 0
2096 0 2 0.5897 1.6963307482109722 16.779337886482033 3.6747836943473207 0 0 1
1994 0 2 0.5897 5.780072730163286 16.710056339406254 2.8547015972670433 1 0 0
1993 0 1 -1.1794 6.30925806115717 17.12710947718777 3.5586685514093723 1 0 0
381 0 2 0.5897 1.5892157965109859 16.800800112529373 0.05947452031846243 0 0 -2
1122 0 2 0.5897 1.0007021120295834 19.271867722032745 1.633071571953099 0 -2 0
735 0 2 0.5897 8.044354870094203 19.815627477174978 2.265073533707557 1 0 -1
1594 0 1 -1.1794 11.339496404062665 18.64828622627588 2.8401080532981418 0 -1 0
811 0 1 -1.1794 8.436898493989371 17.974124315836452 2.344572314795703 0 -1 1
813 0 2 0.5897 9.33936242415825 18.27530222425498 2.5309769242466564 0 -1 1
812 0 2 0.5897 8.340739166846696 17.590146402891854 1.4108263631094509 1 -1 1
1595 0 2 0.5897 11.710028023368055 18.198858080571654 2.089774131468896 0 -1 0
1995 0 2 0.5897 7.200660676148145 17.03800531520002 3.1930755689305235 1 0 0
532 0 1 -1.1794 11.76588956605988 17.269284890972497 0.1962539919054094 0 -1 1
1596 0 2 0.5897 11.380297278895293 19.607201396603415 2.6691785825743666 0 -1 0
533 0 2 0.5897 11.773443326933595 16.281635320057667 0.3093351878939304 0 -1 1
826 0 1 -1.1794 7.782979488299645 16.777526315336097 0.14377722880941715 0 -2 0
231 0 2 0.5897 1.7690265822258437 2.281259164432229 4.395231409331725 1 1 0
556 0 1 -1.1794 5.161031382277035 3.4394118971160363 4.564301993826586 0 0 -1
557 0 2 0.5897 4.286636868058748 3.016320236994967 4.578355350470685 0 0 -1
229 0 1 -1.1794 2.665675975333045 2.0290349700354446 4.4411128299906 1 1 0
477 0 2 0.5897 4.324337433802242 3.6631721230105923 7.870055936787486 1 1 0
230 0 2 0.5897 2.734298622729265 1.4553149969445744 5.213287389149098 1 1 0
2094 0 2 0.5897 1.880498028374001 0.5966921816906151 7.043475131631364 0 0 2
2092 0 1 -1.1794 2.7730450123610426 0.4772548795130164 6.629905126375929 0 0 2
2238 0 2 0.5897 3.85002531082464 1.3499001112670772 7.7605094767032865 1 1 0
1858 0 1 -1.1794 0.7922887710634172 1.065429482448229 8.302370070953453 0 1 -2
808 0 1 -1.1794 11.100769774432688 1.0377809964628641 7.543177127604677 0 -1 -2
830 0 2 0.5897 10.014312335820978 0.585780200097424 4.250938263419092 0 2 1
88 0 1 -1.1794 8.354882615673606 1.9216133705533773 6.796479761363953 0 0 0
90 0 2 0.5897 8.910273207842234 1.5754880894222105 6.063411465842609 0 0 0
89 0 2 0.5897 7.846433313378298 2.5872315304666715 6.384644272712096 0 0 0
829 0 1 -1.1794 9.66117259159909 0.39916123415347904 5.1447961197838215 0 2 1
1043 0 2 0.5897 11.46282362924442 3.3006710977630505 4.991459251353266 0 1 2
1571 0 2 0.5897 9.082054657026237 3.367951362319174 8.09383540244263 0 0 1
1044 0 2 0.5897 11.695423627155815 2.5064351686967057 6.323449020660575 0 1 2
809 0 2 0.5897 10.830311429538462 0.3974188475108085 6.897910136408659 0 -1 -2
251 0 2 0.5897 7.003388481973478 0.40708632068184825 7.203897683234643 1 0 0
476 0 2 0.5897 3.075826813083216 4.332747526456403 7.6826337450815325 1 1 0
475 0 1 -1.1794 3.998324268438113 4.554223769048494 7.684390737487827 1 1 0
1566 0 2 0.5897 3.362835317232525 5.655037906988355 6.154309436815863 0 0 -1
1564 0 1 -1.1794 2.890520481644582 6.282966280036425 5.618054580055299 0 0 -1
1565 0 2 0.5897 3.459383896206111 6.9336673150488615 5.2767271810665015 0 0 -1
986 0 2 0.5897 1.2840753739218247 6.820072276545633 7.048547141807922 1 0 0
866 0 2 0.5897 4.781337688950819 6.462698025792598 7.804840077457743 0 2 2
865 0 1 -1.1794 5.183928797492649 7.332890880074857 8.04327958728919 0 2 2
985 0 1 -1.1794 0.8413655253983232 7.231912291598757 7.750350718130697 1 0 0
46 0 1 -1.1794 4.916089229334655 7.928484730898004 4.351425540911052 0 0 0
867 0 2 0.5897 4.529540551881955 7.95450616880417 7.6413147156613705 0 2 2
47 0 2 0.5897 5.904023623084265 7.871007168443553 4.225660963245096 0 0 0
1031 0 2 0.5897 9.396125288466537 4.075507926705186 4.322025908869203 0 1 1
590 0 2 0.5897 11.233415175725234 6.844831227400565 4.512245906726556 0 0 1
57 0 2 0.5897 6.816188267803794 4.223917388095186 5.21593008419704 0 1 0
55 0 1 -1.1794 7.740077650086424 4.271036053200562 5.526834358651851 0 1 0
56 0 2 0.5897 7.931254234526277 5.1712284198901 5.708014428577977 0 1 0
2141 0 2 0.5897 9.583561726871432 5.7415099995046 7.405844199737743 0 1 1
2140 0 1 -1.1794 9.271095249941359 6.440554585783492 6.8544503828534085 0 1 1
2142 0 2 0.5897 9.940446220077177 6.678320614853465 6.183156959357246 0 1 1
589 0 1 -1.1794 10.492680304967948 7.473600637909392 4.696152869172995 0 0 1
1579 0 1 -1.1794 6.122207644270573 10.868790419303938 4.63229217507388 0 2 0
854 0 2 0.5897 1.3510751738860327 9.367470340605436 4.868722476520508 0 -1 -2
853 0 1 -1.1794 2.230687562112583 9.806841821400507 4.915824891295143 0 -1 -2
1241 0 2 0.5897 3.617731024682399 9.529400061810914 6.188346856491673 1 1 0
1240 0 1 -1.1794 3.9616051442964997 9.636554401222561 7.070516713661185 1 1 0
1242 0 2 0.5897 3.1362766763109406 9.907699486052202 7.541110002118721 1 1 0
2048 0 2 0.5897 4.988627773968821 11.459949893178408 7.654371938383194 0 -1 0
987 0 2 0.5897 1.22633890578338 8.155564119269368 7.727786656593791 1 0 0
852 0 2 0.5897 2.576038517445235 11.921240938694432 6.015613490211147 0 1 1
817 0 1 -1.1794 1.4840085458272378 10.081586458486912 8.073447703245924 0 1 -2
819 0 2 0.5897 0.7611247542002804 10.661668590881082 7.903180398935554 0 1 -2
1293 0 2 0.5897 11.802492468288621 8.229633467206055 8.2031652037827 0 1 0
591 0 2 0.5897 10.947588558195564 8.243806641516361 4.990958728985482 0 0 1
1896 0 2 0.5897 6.488153500916254 9.793954160881862 6.042975032059396 0 1 0
1895 0 2 0.5897 7.120781052579114 8.36931831833794 6.397126802456303 0 1 0
1894 0 1 -1.1794 7.09088035561851 9.310089334036336 6.708969393872547 0 1 0
58 0 1 -1.1794 9.7376827533827 9.935611580000549 6.294551978181997 0 -1 2
60 0 2 0.5897 10.32214494676507 9.412588198462105 6.869441224570794 0 -1 2
257 0 2 0.5897 9.872708556286893 11.068127481996337 4.997159411275489 0 1 -1
59 0 2 0.5897 8.831728166726517 9.720937251708536 6.557402300592065 0 -1 2
756 0 2 0.5897 10.690103349952834 11.384150850952443 7.9272753468061525 1 0 1
1291 0 1 -1.1794 11.45152584707347 9.11122721050124 8.326596135805866 0 1 0
1581 0 2 0.5897 6.7181403616862525 11.593880321124358 4.86255453829726 0 2 0
256 0 1 -1.1794 10.010624310980198 11.624253588876547 4.212934882021986 0 1 -1
851 0 2 0.5897 3.281313391646148 12.628411497626443 7.139632907898069 0 0 1
850 0 1 -1.1794 2.438581018664122 12.508596316410838 6.719334071288134 0 0 1
10 0 1 -1.1794 1.968658476429468 14.890599344663837 5.545699227114034 0 -1 0
12 0 2 0.5897 2.0035635874836375 14.032530863881675 5.946429846673373 0 -1 0
1614 0 2 0.5897 6.032201007328961 14.678646369059578 6.392566657197955 0 -1 2
895 0 1 -1.1794 4.711420963773132 15.209751107274105 5.313397755944663 0 0 0
2049 0 2 0.5897 5.782183927759082 12.84415660781749 7.760597126672748 0 -1 0
1092 0 2 0.5897 1.1313529222835825 13.160149649479605 8.04340506957691 0 0 0
897 0 2 0.5897 3.9121054295368802 15.696382424521673 5.513647805947147 0 0 0
11 0 2 0.5897 1.029004705089224 15.184889582234351 5.661404284780832 0 -1 -1
896 0 2 0.5897 5.260133568872566 15.914640422093553 4.86433180700872 0 0 0
2047 0 1 -1.1794 4.918628834845414 12.404700684482982 7.96771388048444 0 -1 0
510 0 2 0.5897 11.372868533058236 12.919871283181052 4.388269558200142 0 0 -1
754 0 1 -1.1794 10.970998764953524 12.263201226011574 8.136092575281152 1 0 0
1546 0 1 -1.1794 7.824610404083782 13.205958429419567 4.292221679993055 0 -1 -1
1548 0 2 0.5897 8.587649055534618 12.558108481492514 4.319445711169446 0 -1 -1
1612 0 1 -1.1794 6.948780151944094 14.356918775482104 6.6960066971213665 0 -1 2
759 0 2 0.5897 8.545247789631928 14.846667384437119 4.528943348177479 0 0 -1
1613 0 2 0.5897 7.317322344006966 13.841445860548522 5.975251095149804 0 -1 2
758 0 2 0.5897 9.625429359604924 15.305593476528776 5.487371798049066 0 0 -1
736 0 1 -1.1794 10.175384264625709 14.65355288541988 7.06176979895466 1 0 0
757 0 1 -1.1794 9.243820810340539 15.526940982119935 4.681146857005681 0 0 -1
737 0 2 0.5897 10.28592134936302 13.68706641084633 7.260028022037615 1 0 0
738 0 2 0.5897 9.54764725318508 14.937682189070028 7.819508402514817 1 0 0
1379 0 2 0.5897 7.876470259510354 15.690553812237372 8.313340419507936 0 -1 1
300 0 2 0.5897 11.848352378491203 15.19418573996109 6.887930010689562 0 -2 0
2025 0 2 0.5897 5.491504275798534 18.481602359198714 4.34491222810659 0 -2 0
252 0 2 0.5897 6.022844672720255 20.0100973012388 6.182055841386334 1 -1 0
2023 0 1 -1.1794 5.387013952172742 19.43683140045327 4.513941947840385 0 -2 0
2095 0 1 -1.1794 1.6457261038740514 17.604701137859752 4.1757262825722705 0 0 1
2093 0 2 0.5897 2.8171053261624617 19.53349389181083 6.530166971222217 0 -1 2
2097 0 2 0.5897 2.1678638827275285 17.497740700932788 4.96793650165222 0 0 1
1828 0 1 -1.1794 2.955936217292716 17.758159962806868 6.736346066773293 0 -1 1
1830 0 2 0.5897 2.300746814799661 17.38023885568578 7.3649642798544726 0 -1 1
1829 0 2 0.5897 3.8056784396431533 17.45992096595491 7.133116284881293 0 -1 1
1541 0 2 0.5897 5.727006632423308 18.151865504020986 7.558211337773239 0 0 0
250 0 1 -1.1794 6.245092910504335 19.87123331667858 7.132038479970303 1 -1 0
1540 0 1 -1.1794 5.1923728295531575 17.59166254916842 8.196410026633266 0 0 0
342 0 2 0.5897 11.68450793119412 18.208306704780558 4.758974857326012 0 0 1
831 0 2 0.5897 9.522440400750877 19.46936352317998 5.1244406460850564 0 1 1
502 0 1 -1.1794 8.538305361836349 17.924518332730862 5.75578273778514 1 0 -1
1490 0 2 0.5897 10.79845239585385 18.205111250156296 7.194838604223214 1 0 -1
504 0 2 0.5897 8.667258226529874 17.113205490652657 5.249624402468118 1 0 -1
503 0 2 0.5897 7.639951174496387 18.055476703776804 5.507238489916285 1 0 -1
1491 0 2 0.5897 9.48593092329353 17.957060562670318 7.735916709455079 1 0 -1
1489 0 1 -1.1794 10.343848347272743 18.209665821910242 8.06384282565626 1 0 -1
340 0 1 -1.1794 11.868867279420513 17.733211052241167 5.632103436956301 0 0 1
2237 0 2 0.5897 5.317247140579447 1.5403467499236974 8.35482957665946 1 1 0
2236 0 1 -1.1794 4.393454123193642 1.748876885889025 8.517695560040664 1 1 0
223 0 1 -1.1794 1.2611154075676096 3.9170688260176596 8.392127221635 1 0 0
65 0 2 0.5897 2.7107268225790726 2.6077381485409195 10.356738419033276 0 0 0
64 0 1 -1.1794 2.426857257277625 2.1962820932562974 11.167927582760532 0 0 0
66 0 2 0.5897 1.4229280329075775 2.227565599372133 11.289801231954964 0 0 0
1549 0 1 -1.1794 5.679717346691514 2.5137587809065565 11.54064656262018 0 1 1
1550 0 2 0.5897 4.747226816033574 2.6973527635122827 11.60423674799542 0 1 1
1551 0 2 0.5897 6.0729998463790675 3.3835905543895004 11.341163991551026 0 1 0
1860 0 2 0.5897 1.14981822325525 0.4426740618800705 8.997006552611195 0 1 -2
225 0 2 0.5897 1.1314603823209484 2.9656669511740743 8.567184796249496 1 0 0
291 0 2 0.5897 4.377425171707877 0.22916361727682943 9.872504539258662 0 0 0
1563 0 2 0.5897 2.655582087961699 3.754120155179438 12.264174481042499 0 2 -1
593 0 2 0.5897 7.943502425200806 1.6004882557056008 9.077035555515373 0 1 0
810 0 2 0.5897 10.723302949915986 0.7672818397472133 8.376499295620881 0 -1 -2
1572 0 2 0.5897 10.10806232087228 3.734975980824953 9.02614236455806 0 0 1
592 0 1 -1.1794 7.0199860612484475 1.3115876985150015 9.312111425912585 0 2 0
594 0 2 0.5897 7.000998838874096 1.7425251476795844 10.197879169460277 0 2 0
1298 0 2 0.5897 9.959081695064516 2.5929540366846786 11.534262198319155 0 0 -2
1555 0 1 -1.1794 11.070348805482777 3.8133558436050845 10.531882064800708 0 2 0
84 0 2 0.5897 10.461557627482684 0.5751713368354204 10.886761765773686 0 1 0
82 0 1 -1.1794 10.627485498566317 0.17450476191246175 10.004325209520436 0 1 0
1297 0 1 -1.1794 9.723482422990072 1.7284169036993955 12.03182946615087 0 0 -2
1299 0 2 0.5897 8.821481313925707 1.7433420985098402 12.282706940934776 0 0 -2
1556 0 2 0.5897 12.0520458119317 3.627053810807377 10.64084307224779 0 2 0
978 0 2 0.5897 0.5551919969420395 6.403339178803387 9.751254751074168 1 0 0
976 0 1 -1.1794 0.7013493901556882 5.651376521645868 10.358601431413359 1 0 0
637 0 1 -1.1794 3.7297042285036413 5.050048458473982 10.518165927412745 0 -2 1
639 0 2 0.5897 3.9117271992277485 5.155928874089823 9.566369079915194 0 -2 1
638 0 2 0.5897 2.8204694031080537 5.409301029997963 10.656189755676074 0 -2 1
834 0 2 0.5897 4.973423041557194 6.035281126516101 11.522211187038284 0 1 1
833 0 2 0.5897 5.676220429932217 7.362603380530573 11.363974059635645 0 1 1
832 0 1 -1.1794 5.836294566796967 6.488717496439629 11.776126048433964 0 1 1
977 0 2 0.5897 0.8676738687835245 4.970281450565149 9.727259127389006 1 0 0
333 0 2 0.5897 8.310787001100769 7.297618902405826 8.495354719541075 0 -1 0
1570 0 1 -1.1794 9.327600714341875 4.095262694507168 8.590166069073755 0 0 1
332 0 2 0.5897 6.852654783174933 7.158888944008917 8.686598476073124 0 -1 0
1557 0 2 0.5897 10.833289755858994 4.745015844768112 10.532422621199899 0 2 0
331 0 1 -1.1794 7.6625850858383995 7.2342160215231335 9.178972646499782 0 -1 0
1484 0 2 0.5897 8.037255924565528 4.467360423677364 9.863176626869711 1 1 -1
1485 0 2 0.5897 7.309117995901297 5.461799417172166 10.742101214245276 1 1 -1
1483 0 1 -1.1794 7.722212181383435 4.547477429613762 10.761904851953974 1 1 -1
525 0 2 0.5897 9.243982950719644 7.040673230759099 10.550408695276637 0 1 0
523 0 1 -1.1794 10.106693518830879 6.69314128719766 10.861149998722405 0 1 0
524 0 2 0.5897 10.801800724212756 7.301023418246055 10.598646579264669 0 1 0
68 0 2 0.5897 8.762290968581334 4.8760554434888865 12.407706417705304 0 -1 -1
1586 0 2 0.5897 3.7806518971996197 8.381916518883415 10.044065255076342 0 0 -1
818 0 2 0.5897 1.5741904757986582 10.235460930838116 9.028171174387326 0 1 -2
1587 0 2 0.5897 4.991454033585646 9.326362321631178 10.05894941671393 0 0 -1
1585 0 1 -1.1794 4.126154106855696 9.080681462083856 10.566833540703588 0 0 -1
2239 0 1 -1.1794 1.7326436258994533 11.500164224991456 10.784341717281201 1 1 1
2241 0 2 0.5897 2.671823717758494 11.76819803925474 10.67569325002333 1 1 1
288 0 2 0.5897 4.068347401001811 9.150436264311516 12.266395162256178 0 -1 0
2240 0 2 0.5897 1.784450820326077 10.695642430443137 11.337530165465497 1 1 1
1998 0 2 0.5897 5.508649138417874 11.61232193499189 11.774002292849302 1 1 0
1996 0 1 -1.1794 6.199924330629174 11.262848123776436 12.31591073106856 1 1 0
1583 0 2 0.5897 6.3759537538139135 9.43002574424395 8.418104492024513 0 0 0
1582 0 1 -1.1794 6.4179426150243275 9.804671573571644 9.316910942141448 0 0 0
1292 0 2 0.5897 11.46710108556773 9.256652573160544 9.277348529703682 0 1 0
1584 0 2 0.5897 7.052756929692953 9.232631059365822 9.787442704816272 0 0 0
74 0 2 0.5897 12.042356134616035 9.623884755943276 11.527076228896856 0 1 1
73 0 1 -1.1794 11.509135511600585 10.044689724310164 10.853164351716671 0 1 1
75 0 2 0.5897 10.57474965961967 9.96636790052089 11.165871229667678 0 1 1
838 0 1 -1.1794 8.679259143108574 9.775949524746572 11.477763991653116 0 -1 1
840 0 2 0.5897 8.713614537201545 8.979760212518544 12.040181915407922 0 -1 1
839 0 2 0.5897 7.995620878254624 10.342979127040024 11.907075647379273 0 -1 1
98 0 2 0.5897 7.754006243679852 11.517619473613413 9.808495036175211 0 1 0
2022 0 2 0.5897 0.6553036223236633 12.628197556140105 11.67649593903202 0 -2 -1
61 0 1 -1.1794 4.403269741750349 12.58586470615056 10.646624166326438 0 -1 2
62 0 2 0.5897 4.590486843343999 12.343156326507081 9.701153120904653 0 -1 2
63 0 2 0.5897 4.508945517414441 13.54377736091691 10.610378740850095 0 -1 2
1027 0 1 -1.1794 4.8743757508305965 15.61357874297892 10.628829818444576 0 1 0
1067 0 2 0.5897 6.263156520851521 15.834382121097574 11.817480709682298 0 -1 1
1319 0 2 0.5897 1.392611723516819 15.761229311310466 8.811121790759783 0 -2 0
1090 0 1 -1.1794 0.8163389877357436 13.847860633830559 8.67190847707613 0 0 0
1028 0 2 0.5897 3.938749170892688 15.661621321106448 10.777849453537684 0 1 0
1029 0 2 0.5897 5.083651427686144 15.793086559885374 9.705945450665785 1 1 0
43 0 1 -1.1794 2.231295747031335 15.961124560315014 11.311943177499394 0 -1 -1
1505 0 2 0.5897 2.9140139862227015 14.57888857118737 12.349238413779117 1 1 0
1350 0 2 0.5897 10.912234780106214 12.345546908950011 11.90085993865711 0 2 1
755 0 2 0.5897 10.573136423731553 12.595625139271329 8.972513803756469 1 0 1
97 0 1 -1.1794 7.827940810751723 12.480619996511763 10.029130143393 0 1 0
1140 0 2 0.5897 10.485900601419996 14.223004031156293 10.464130685637222 0 1 2
99 0 2 0.5897 7.312242326991782 12.45005896399499 10.87902205287786 0 1 0
1138 0 1 -1.1794 10.17995450149766 13.301652846516296 10.476812120205897 0 1 2
1139 0 2 0.5897 9.252574643429835 13.14368527856667 10.27563483049982 0 1 2
1068 0 2 0.5897 7.821465259948033 15.916311974350972 12.236675591959122 0 -1 1
384 0 2 0.5897 9.968657623528932 15.740003236338552 12.42641828517684 0 0 0
1862 0 2 0.5897 11.86584066933921 15.759131258476392 8.908856078148483 0 0 -1
44 0 2 0.5897 1.2872162574428607 16.093707178030268 11.24621846229048 0 -1 -1
1318 0 1 -1.1794 1.3134578437122455 16.676335509219086 8.540004988372138 0 -2 0
1646 0 2 0.5897 1.1178324288689745 19.30799473997925 10.660762176831831 0 1 2
1542 0 2 0.5897 4.944678748401518 18.31330326421656 8.815946257488106 0 0 0
1645 0 1 -1.1794 1.6846694233656048 19.12224791545243 9.938391293480791 0 1 2
290 0 2 0.5897 4.770290632246227 19.355808645897657 11.001840586660663 0 -1 0
289 0 1 -1.1794 4.333918382877658 19.354856972203503 10.142978244309655 0 -1 0
1647 0 2 0.5897 2.61365011092669 19.265083446832932 10.315578233111138 0 1 2
1320 0 2 0.5897 1.5472224504486054 17.255492150474307 9.256297266752146 0 -1 0
1351 0 1 -1.1794 5.567532999864062 18.76062212208136 12.439017167238788 0 0 0
45 0 2 0.5897 2.5600333404561484 16.567307415287548 11.968383506122604 0 -1 -1
1861 0 1 -1.1794 11.31276869481891 16.217458357151834 9.57956936153952 0 0 -1
1863 0 2 0.5897 10.85188235654902 16.873590822277055 9.009206822003252 0 0 -1
1378 0 1 -1.1794 8.39663038003394 16.081264345423122 9.00837546453737 0 -1 1
382 0 1 -1.1794 9.599237976515468 16.434033226633353 11.924499464830578 0 0 0
383 0 2 0.5897 9.713938885378038 16.162442120060582 11.018264912934882 0 0 0
1337 0 2 0.5897 7.22830573670912 18.448176514310145 10.931258228560102 0 -1 -1
1338 0 2 0.5897 7.694036697186741 19.44389997884093 9.80911190858096 0 -1 -1
83 0 2 0.5897 10.337482891350314 19.351490224368398 9.862260051574223 0 0 0
1336 0 1 -1.1794 7.975080916855429 18.65199115263932 10.380091769803848 0 -1 -1
1380 0 2 0.5897 7.948280318597124 16.88408535637361 9.32642687331886 0 -1 1
321 0 2 0.5897 11.345387095617129 17.494813539784335 12.134167270927039 0 0 0
1618 0 1 -1.1794 0.7670716941630251 0.7992262425904546 15.064046273622246 0 0 -2
1049 0 2 0.5897 2.7017996052716504 0.7653187017951302 12.514534322785368 0 1 1
1619 0 2 0.5897 0.8959093382807886 1.7033327227210646 15.29654175939373 0 0 -2
347 0 2 0.5897 4.514940121704177 2.548908670338587 15.197931699668198 0 2 0
1847 0 2 0.5897 3.5892449034013842 0.7389056102183074 14.767493989533708 0 1 2
346 0 1 -1.1794 4.76078269953006 3.491771304417496 15.062271989603566 0 2 1
348 0 2 0.5897 4.162169188041357 3.7645227496478406 14.306793181776463 0 2 0
1846 0 1 -1.1794 3.996187502823062 0.9526356837262556 15.60146171943377 0 1 2
1848 0 2 0.5897 3.2511398628020283 1.098200293431605 16.183641834680383 0 1 2
2262 0 2 0.5897 1.5713868370515007 3.7956849165801287 14.545621606679866 1 1 0
2260 0 1 -1.1794 1.3343659927551652 3.351879827098531 15.345383329527793 1 1 0
1620 0 2 0.5897 1.090806033117659 0.2537710254028751 15.787076862235134 0 0 -2
1050 0 2 0.5897 1.932692889738933 0.3526091639768509 13.717591797082427 0 1 1
1048 0 1 -1.1794 2.6661055036297103 0.10816505653033343 13.163710762474118 0 1 1
1262 0 2 0.5897 6.631170170111844 1.6224454730284847 12.731383900945223 0 2 0
1261 0 1 -1.1794 7.237646952010956 1.0165223221930801 13.187070795732012 0 1 0
1263 0 2 0.5897 7.295178623868798 1.3446342261515523 14.070716528958402 0 1 1
801 0 2 0.5897 11.331211824956249 2.9614655321487215 14.634795013864803 0 0 -1
799 0 1 -1.1794 11.5198426576997 2.1111668857524744 14.14666910588699 0 -1 -1
1876 0 1 -1.1794 7.94591989098185 3.007707869023413 15.253606004079069 0 0 -1
1878 0 2 0.5897 8.623824656904556 2.250276562308781 15.327090463441685 0 0 -1
1877 0 2 0.5897 7.7479847002888365 3.276800622326912 16.129860535291915 0 0 -1
800 0 2 0.5897 11.026198982960864 2.0859526157569896 13.310919223035373 0 -1 -1
1289 0 2 0.5897 12.048705353334316 0.37191489038166753 14.303274804243399 0 1 0
2149 0 1 -1.1794 10.981416606922329 3.9881961879945806 15.879619199396926 0 -1 1
262 0 1 -1.1794 9.123835378218812 0.5460576227388698 16.132489727410395 0 -1 0
2261 0 2 0.5897 1.3266881288038852 4.029752300193117 16.010736333329813 1 1 0
1111 0 1 -1.1794 2.5506630043305076 6.759143413264981 13.576594281652184 0 1 2
1561 0 1 -1.1794 2.90411657851132 4.178947529396691 13.099339826515346 0 2 -1
1562 0 2 0.5897 2.731110735366792 5.125546398222309 13.062152707134537 0 2 -1
1112 0 2 0.5897 1.6877691920949944 7.063457356250154 13.97103850961224 0 1 2
1874 0 2 0.5897 3.5684532926962764 6.572305760676495 15.238393593693564 0 1 0
1873 0 1 -1.1794 4.217856089002007 6.9126718214210605 15.888089980240116 0 1 0
1875 0 2 0.5897 5.014401743302662 6.466494415307289 15.592501281389513 0 1 0
93 0 2 0.5897 6.172674244679094 4.6778387430796675 14.714524856636436 0 1 1
1113 0 2 0.5897 2.9112781118720052 7.601996714904616 13.296184667851648 0 1 2
1386 0 2 0.5897 1.1678176141277543 6.2596839208817325 16.440714309365333 0 0 -1
2126 0 2 0.5897 4.248845746887086 4.260813942211522 16.68134037688581 0 0 -2
1600 0 1 -1.1794 0.5140118872335645 7.553134619106638 14.965487744965174 0 0 -2
92 0 2 0.5897 6.464816392722743 5.527220419197051 13.427156927324328 0 1 1