LAMMPS data file via write_data, version 23 Jun 2022, timestep = 36040000

2268 atoms
2 atom types

0.6195093879557838 46.831189612025824 xlo xhi
0 20.047001 ylo yhi
0 20.857 zlo zhi

Masses

1 1.008
2 15.999

Atoms # full

77 0 2 0.5897 0.9746609544903082 2.355048426171721 1.4220198608799421 0 1 -2
1763 0 2 0.5897 3.1862675798837476 3.9579447171189157 1.0160336425762138 1 0 2
76 0 1 -1.1794 1.8034482973302217 2.405439520987309 0.8565719922045881 0 1 -2
78 0 2 0.5897 2.2691643965812034 1.5373713192636405 0.8353204233084959 0 1 -2
2106 0 2 0.5897 5.360485186712887 0.8024736296946443 2.7258881495397325 0 -1 0
985 0 1 -1.1794 2.3016306538805877 0.674007288427809 3.359586336604547 1 -2 1
473 0 2 0.5897 4.154122235097535 2.675213222702941 3.8428599824627767 1 -2 0
987 0 2 0.5897 2.5423731086356574 1.5691891672368088 3.1971745867911707 1 -2 1
472 0 1 -1.1794 3.410014025839521 3.1831206770708818 4.117451356979896 1 -2 0
2104 0 1 -1.1794 5.485603033741596 1.7029909268750925 3.1463265226302046 0 -2 0
2098 0 1 -1.1794 2.963507701053068 0.08696820553952382 0.2667015590091128 0 2 2
986 0 2 0.5897 2.845974048286933 0.3250403690028747 4.116572196508364 1 -2 1
2105 0 2 0.5897 6.114535601256947 1.604672030747805 3.8190455166358963 0 -2 0
1635 0 2 0.5897 0.8187857759387696 0.3352131143534877 4.100895310345073 0 0 1
1889 0 2 0.5897 7.223718304849094 3.568875643681463 3.5941450217379223 0 2 0
1106 0 2 0.5897 7.312299745849161 2.4201364984292026 0.5418127497196362 0 0 1
1107 0 2 0.5897 7.916046763098307 2.143902170982248 1.9866501819826758 0 0 1
1105 0 1 -1.1794 7.989854543722367 1.929384294905919 1.0431922193569263 0 0 1
19 0 1 -1.1794 11.300658311368604 1.077940449497151 1.4088336035740592 0 0 1
1874 0 2 0.5897 10.061436701930342 0.582365117414285 2.6369575771372133 0 1 -1
1878 0 2 0.5897 7.862526238339898 0.13906301450625552 0.8013648535390345 0 3 1
1860 0 2 0.5897 9.345821146266015 3.462191531261442 0.9535519125191173 0 -1 -3
21 0 2 0.5897 11.450965534861584 0.10124930631866422 1.1238646331992845 1 0 1
1873 0 1 -1.1794 9.647477619951514 0.11717523719797754 3.362768079707964 0 1 -1
1888 0 1 -1.1794 8.02809726393485 3.01014751953108 3.520826833107417 0 2 0
1875 0 2 0.5897 8.660247403462348 0.1889668105507977 3.3106100941124534 0 1 -1
1890 0 2 0.5897 8.739202955954653 3.655237495259267 3.72302627384231 0 2 0
20 0 2 0.5897 10.862672490154255 1.4347102624510222 0.6659351682993713 0 0 1
1762 0 1 -1.1794 4.100986740398234 4.2347499241428475 1.1411878250389849 1 0 2
1764 0 2 0.5897 4.093292844777141 5.2331397352151265 0.9428122593854168 1 0 2
112 0 1 -1.1794 2.114542869500873 5.4459896248388455 3.2050790335649113 0 0 -1
38 0 2 0.5897 5.220470852853172 4.485122637707313 2.6565940608562495 0 1 -3
37 0 1 -1.1794 5.92902219947581 5.002870614034687 3.058122295265367 0 1 -3
114 0 2 0.5897 2.504840709459403 4.610956945466817 3.467424511980667 0 0 -1
2236 0 1 -1.1794 4.868051571331773 6.842002917190924 0.47932992880693687 1 2 0
2237 0 2 0.5897 4.071300712733137 7.334754714025951 0.3405057532600904 1 2 0
2078 0 2 0.5897 4.762351313281918 7.66020817429303 4.053449335907567 0 2 2
2079 0 2 0.5897 3.4666212901320548 6.653798561647863 4.007499224905413 0 2 2
135 0 2 0.5897 1.0394446925166034 5.521793921875719 1.688020194687502 0 2 -2
725 0 2 0.5897 5.573830730998709 7.58960756054132 2.0350964681287684 1 -1 1
39 0 2 0.5897 5.547900340493657 5.442555402293156 3.880758898082651 0 1 -3
113 0 2 0.5897 1.5124400943446428 5.574292982788962 3.9807876033435647 0 0 -1
1858 0 1 -1.1794 9.732688053840688 4.353728424219094 0.8902842986055909 0 -1 -3
971 0 2 0.5897 11.449803868918327 4.683908115296647 2.048631178356692 1 -1 1
237 0 2 0.5897 7.3376527704748495 6.106793305707039 1.9514427493577453 1 0 0
823 0 1 -1.1794 10.175346397836348 7.282289346209098 3.183054771226472 0 -1 1
824 0 2 0.5897 9.46328129812835 7.113929241693055 2.5397502336431685 0 -1 0
235 0 1 -1.1794 8.153233112330444 6.392319134163833 1.5440779431673624 1 0 0
236 0 2 0.5897 8.612907495969726 5.551059514778582 1.344278262581617 1 0 0
870 0 2 0.5897 8.177973609190344 7.694105728522911 0.3559785838902498 0 -1 0
510 0 2 0.5897 11.507041498855482 7.981810697359811 2.145068620946975 0 -1 0
1101 0 2 0.5897 10.218307553761704 5.796494437999862 4.168745423588984 0 0 1
1149 0 2 0.5897 1.4688207093473127 8.308499688736868 0.02732619095090898 0 -1 0
724 0 1 -1.1794 5.934565661963744 8.116991543850508 2.786510345233503 1 -1 1
384 0 2 0.5897 2.339475503456592 8.935865437005019 2.0194494709710695 0 0 -1
382 0 1 -1.1794 2.0039171523529387 9.322480952093752 2.8683825455590126 0 0 -1
726 0 2 0.5897 6.07872357215371 8.934467559143386 2.3454448692591487 1 -1 1
1147 0 1 -1.1794 2.3537369014669287 8.357040204714425 0.29524223495395774 0 -1 0
1148 0 2 0.5897 2.7979034138571985 9.189517949026738 0.1557999140494528 0 -1 0
1793 0 2 0.5897 1.2576459700441824 10.655118158886149 1.666571760634096 0 -1 1
1792 0 1 -1.1794 0.8201288635996593 11.298013266039082 1.1016596060496675 0 -1 1
1090 0 1 -1.1794 5.824989251610542 11.98213537995264 3.699075951325831 0 0 1
383 0 2 0.5897 2.780478571154816 9.766290564822913 3.295828343514317 0 0 -1
1085 0 2 0.5897 5.457503794799745 10.025326432811351 0.7412644007393295 0 -1 -1
825 0 2 0.5897 9.957403634262374 8.136329874179884 3.5140815171601916 0 -1 0
508 0 1 -1.1794 11.830892506021243 8.487371806690902 1.3869273890414322 0 -1 0
1084 0 1 -1.1794 6.430983197405563 10.100035890177876 0.9442480721888068 0 -1 -1
1086 0 2 0.5897 6.559058286654678 11.020419111418162 0.8807914212876449 0 -1 -1
1092 0 2 0.5897 6.630215164732276 11.451278227296797 3.66906116017403 0 0 1
739 0 1 -1.1794 8.185078589242782 10.501440973502417 3.2902762952313305 1 0 0
741 0 2 0.5897 8.718045362257834 10.505282277436386 2.494306363610562 1 0 0
740 0 2 0.5897 8.767015712388131 10.139313538972205 3.9867598684540475 1 -1 0
1346 0 2 0.5897 11.644569171380143 10.186353240495473 3.655151923802126 0 0 -2
1345 0 1 -1.1794 10.823912416641598 9.92680098017042 4.110614308847766 0 0 -2
1377 0 2 0.5897 10.513795693599294 9.914585332847542 1.077428011830897 0 1 1
1375 0 1 -1.1794 9.918598648758259 10.614616243493003 0.726457111273616 0 1 1
1376 0 2 0.5897 9.362705840803507 10.119995845963677 0.09804850964543319 0 1 1
1784 0 2 0.5897 5.161604975443237 12.408731539390624 2.065871945685723 1 0 2
1783 0 1 -1.1794 4.50713883022435 12.803360382913548 1.4828831719208675 0 0 2
731 0 2 0.5897 2.862407479254747 13.277260336855818 1.7817957634214114 1 0 1
1785 0 2 0.5897 4.986677123527717 13.480982221235296 0.9668693246284071 0 0 2
256 0 1 -1.1794 5.266392578407334 15.4231580201452 0.7188204331108133 0 1 1
258 0 2 0.5897 6.040875406819452 15.883434271379596 0.39968697025730016 0 1 1
309 0 2 0.5897 1.9210942128246586 15.375866004538027 1.1168891536103491 0 -2 2
257 0 2 0.5897 4.528995530584878 15.52192415134237 0.09300116421282374 0 1 1
732 0 2 0.5897 1.5554520187186747 13.86167515180992 2.6458758105400877 1 0 1
730 0 1 -1.1794 1.9206132685171757 13.597506246801476 1.7441115432580394 1 0 1
585 0 2 0.5897 5.084341869456401 15.44049430685654 2.4314808607701095 0 -1 1
1794 0 2 0.5897 1.2029812380620322 12.184161798046446 1.2808883120505172 0 -1 1
583 0 1 -1.1794 5.065371009284686 15.67400258615862 3.3978150585785034 0 -1 1
780 0 2 0.5897 1.3019952296002488 15.57010699999786 4.055692578623096 0 -3 -1
778 0 1 -1.1794 0.7859102092378679 14.77924360572098 3.804064136977297 0 -3 -1
803 0 2 0.5897 10.806315689534886 12.301358741185807 0.12831805473630062 0 1 0
745 0 1 -1.1794 7.274709008053439 12.940313995207667 0.5128096929770517 1 0 1
1237 0 1 -1.1794 11.012521537575592 14.47626111309445 2.27416884298957 1 0 1
747 0 2 0.5897 7.4335534706825195 13.57208947202731 1.2550538872574992 1 0 1
746 0 2 0.5897 8.018731057067313 12.313978923170144 0.6530067945883125 1 0 1
1239 0 2 0.5897 11.26201337960851 13.98410342426807 3.07043675272604 1 0 1
1238 0 2 0.5897 11.303224296838188 13.903039620666506 1.5057287940306612 1 0 1
1017 0 2 0.5897 9.112243686724728 14.260966427758014 2.8376126408256224 0 3 1
802 0 1 -1.1794 11.650759706999516 12.68626204484093 0.3380516326836401 0 1 0
1775 0 2 0.5897 10.14565792109198 16.02987470651506 1.8422332309854734 0 -3 0
1015 0 1 -1.1794 8.18299129376678 14.47766531791647 2.7752764645008208 0 3 1
1016 0 2 0.5897 7.778470365203919 14.187638300359135 3.641792025622072 0 3 1
899 0 2 0.5897 12.142428042755686 12.090059535836009 4.168195643408716 0 -2 0
749 0 2 0.5897 0.9347665930634601 19.8100198576979 1.3676155171619913 1 0 -1
45 0 2 0.5897 6.3529834741871944 16.640206835711144 3.1892398989719615 0 -2 -1
2100 0 2 0.5897 3.7416289873913704 19.762966730583436 0.6809798340000044 0 1 2
307 0 1 -1.1794 1.9724726495929903 16.314206449015973 1.287432792358964 0 -2 2
940 0 1 -1.1794 5.19768904343501 19.327219209810117 1.6984406028024166 1 -1 1
308 0 2 0.5897 1.9316873339158729 16.604441026494744 0.35711240373477904 0 -2 2
1024 0 1 -1.1794 2.68853426768608 16.93697136269698 3.7281976679578115 0 2 2
941 0 2 0.5897 4.9429417514709835 18.526150307248304 2.2181164987008857 1 -1 1
584 0 2 0.5897 4.295618218095718 16.26210954475539 3.5439489566229354 0 -1 1
1026 0 2 0.5897 2.79131014360285 17.937866745920527 3.7840830948530884 0 2 2
1025 0 2 0.5897 2.44483358234964 16.740818837427575 2.8202252568968693 0 2 2
942 0 2 0.5897 5.726401924896444 19.02694564586413 0.96408321992704 1 -1 1
1080 0 2 0.5897 8.037051373347776 16.762901863066887 0.5731944767553985 0 -2 2
43 0 1 -1.1794 7.132890291767472 17.226485829866142 2.963913654797215 0 -2 -1
1532 0 2 0.5897 7.241722143959735 18.631865073450992 3.967735954746779 0 -1 -1
44 0 2 0.5897 7.915674086038682 16.673928774178638 2.9787628601347054 0 -2 -1
1877 0 2 0.5897 8.103407796440571 18.847182192313753 1.4525522234643564 0 2 1
1876 0 1 -1.1794 7.910662185090509 19.29207335384645 0.5802677123515071 0 2 1
1774 0 1 -1.1794 9.82706663894005 16.929403667123772 1.7255112144253462 0 -2 0
1776 0 2 0.5897 10.531253245054991 17.332766773449038 1.1913475172639378 0 -2 0
1520 0 2 0.5897 10.595348036048794 17.331344999787813 3.369613929361288 0 -3 1
13 0 1 -1.1794 11.617793727953567 18.646229662506396 0.39448920961112316 0 -4 1
1521 0 2 0.5897 10.349080420893275 18.749444575022743 4.024754979765283 0 -4 1
474 0 2 0.5897 3.4026718059852787 3.4144137560287957 5.035589188548501 1 -2 0
278 0 2 0.5897 2.4720550010548026 2.1242992434996166 7.4796727861686225 0 1 1
277 0 1 -1.1794 2.2072324028667314 1.2282869466926287 7.616870631997677 0 1 1
2006 0 2 0.5897 5.659198790462426 2.6075196372952525 7.7297182647972615 1 -1 0
613 0 1 -1.1794 3.0409824817459117 3.7359464409260736 6.8862977420296785 0 1 2
615 0 2 0.5897 4.010256856481421 3.857820244906231 7.036270215014775 0 1 2
2005 0 1 -1.1794 5.580023810490614 3.5733244972829055 7.557260355563521 1 -1 0
809 0 2 0.5897 1.4621150132116099 3.5978212533833163 5.482870493868048 0 -2 -1
1083 0 2 0.5897 6.118979261940463 0.46680991917136494 7.837754087700642 0 1 -2
279 0 2 0.5897 1.4558191608271795 1.0036380298502217 7.072011358141729 0 1 1
1116 0 2 0.5897 8.367299338874929 2.567739147479833 5.505936595562273 0 -2 -1
1114 0 1 -1.1794 8.58255014735512 2.2479672102718586 6.417828693376094 0 -2 -1
1115 0 2 0.5897 9.005910550227979 2.941503489004983 6.919954693772061 0 -2 -1
1571 0 2 0.5897 8.033098329095779 0.6813265472860783 6.854846813933791 0 0 1
492 0 2 0.5897 11.589373952419662 3.06816997219253 7.354554399656864 1 0 0
2077 0 1 -1.1794 4.044124551332565 7.212281550036743 4.534847448943877 0 2 2
614 0 2 0.5897 2.5540071114308835 4.523451584890075 7.198155145419424 0 1 2
52 0 1 -1.1794 1.4470884534563684 5.885232045716116 7.788415749461978 0 0 -1
54 0 2 0.5897 1.1792812012227216 6.613763000148567 7.2183673199125336 0 0 -1
988 0 1 -1.1794 1.1074739289749511 7.5375078492894065 5.184692333505839 1 -1 1
1804 0 1 -1.1794 9.942655778730765 4.251002812474417 7.613429048292036 0 1 0
630 0 2 0.5897 7.116869795464587 4.928444427943362 6.953238050865766 0 0 -1
1120 0 1 -1.1794 11.26443786807262 6.670009585714459 7.697967065390193 0 -2 1
1100 0 2 0.5897 10.30122104326114 4.803041597892181 5.326148496437195 0 0 1
1099 0 1 -1.1794 9.687751244733928 5.1308739567708175 4.6435379754397585 0 0 1
1266 0 2 0.5897 7.267099520484824 7.144855983716825 5.433181394076115 0 -2 1
1260 0 2 0.5897 7.725197874028411 6.8534958583594285 7.658996816161678 1 -2 0
628 0 1 -1.1794 7.315900486028503 5.60840287840834 6.324395522549315 0 0 -1
629 0 2 0.5897 8.189701730352269 5.43785811457081 6.001819677793571 0 0 -1
1806 0 2 0.5897 10.290673177120711 5.14485610679673 7.513771803684305 0 1 0
1745 0 2 0.5897 11.729235810886163 7.875277590008505 6.368320501337313 1 0 1
1122 0 2 0.5897 10.812172618381748 7.246293694922485 8.330486022212574 0 -2 1
1121 0 2 0.5897 12.156390050075922 6.524279414209494 8.046069317270591 0 -2 1
63 0 2 0.5897 4.187582410962301 8.163823837154526 6.39998536138427 0 1 2
990 0 2 0.5897 1.5820900136097142 8.165525615676295 4.690706181651137 1 -1 1
61 0 1 -1.1794 3.894598878292155 8.779793033601692 6.997347233618921 0 1 2
62 0 2 0.5897 4.438010917219814 8.756693636002586 7.762110840477109 0 1 2
234 0 2 0.5897 4.566859435727078 11.054238080370112 4.421095810446045 1 1 -1
232 0 1 -1.1794 3.7629110975085274 10.629277419395732 4.7467628067971255 1 1 -1
233 0 2 0.5897 3.9966002675002295 10.043063297824625 5.467854333238858 1 1 -1
27 0 2 0.5897 1.025901915453057 9.808508177938641 7.894742485304666 0 0 2
324 0 2 0.5897 2.415274683399229 11.750617311532322 5.370558172859723 0 1 0
1492 0 1 -1.1794 0.9917775998514508 11.640078940587639 8.036731996058178 1 0 0
1494 0 2 0.5897 1.1009820678992868 11.881012223549405 7.108440535847491 1 0 0
26 0 2 0.5897 2.340138042299688 8.818386285185918 7.7715554945662255 0 0 2
25 0 1 -1.1794 1.3848450617942953 8.915657473659067 8.162301711133837 0 0 2
1264 0 1 -1.1794 7.632257430313168 8.040210301098519 5.119565553493706 0 -2 1
1265 0 2 0.5897 7.0860053387750765 8.321503711780519 4.354232202377712 0 -2 1
1608 0 2 0.5897 6.7308527813718895 11.651410683136596 7.412178171614077 0 1 2
1347 0 2 0.5897 11.188349610926508 9.377967801399617 4.857472816290417 0 0 -2
1761 0 2 0.5897 7.81270928534653 9.348242475720882 6.3090246908755425 1 1 -1
1760 0 2 0.5897 8.070416905532394 9.32471049290589 7.799072839008435 1 1 -1
1759 0 1 -1.1794 8.073108968025842 9.96406547792884 7.0669658429524995 1 1 -1
1041 0 2 0.5897 10.521261643158956 11.934682049371174 5.829855010204995 1 1 0
1040 0 2 0.5897 9.210450624147606 11.136473809741544 6.499259088946477 0 1 0
1039 0 1 -1.1794 9.850754729695868 11.890663637094583 6.510198831758471 0 1 0
530 0 2 0.5897 10.434011868482482 11.589636948801456 8.208098434296883 0 -3 4
1091 0 2 0.5897 6.08356601558886 12.724374943483342 4.244676713223983 0 0 1
322 0 1 -1.1794 1.6612569227381602 12.340140488215377 5.4597300974711525 0 1 0
1030 0 1 -1.1794 3.472616853392731 14.48748639344019 6.047864052511295 0 3 1
323 0 2 0.5897 2.1389674340429212 13.224999651743095 5.594390821510445 0 1 0
1574 0 2 0.5897 4.247544783826831 14.726409080966798 7.7673164309602285 0 1 1
1032 0 2 0.5897 4.141120079611578 14.74817184609941 5.394230684706677 0 4 1
239 0 2 0.5897 6.2934561796239885 15.010286324487959 5.088805202597365 1 -1 -1
1031 0 2 0.5897 2.8844873069621606 15.25133776340507 6.126211643988522 0 3 1
1606 0 1 -1.1794 6.23461791749505 12.410404031020942 7.714033131737782 0 1 2
2083 0 1 -1.1794 12.040110559691264 14.453242888854689 6.907893662112702 0 1 -1
240 0 2 0.5897 6.487669687045276 13.729384963727224 5.973436547701549 1 -1 -1
238 0 1 -1.1794 6.635796828452979 14.0687317463618 5.092832028044605 1 -1 -1
1893 0 2 0.5897 9.03366362891158 14.953217051986998 6.602592928032904 0 0 2
1891 0 1 -1.1794 9.255919259021189 14.2500207733246 7.268229804606717 0 0 2
1892 0 2 0.5897 9.235201921587837 13.292468183484846 6.899238808414349 0 0 2
2084 0 2 0.5897 11.189143206115041 14.733903116474234 7.1841401495053585 0 1 -1
898 0 1 -1.1794 11.757265187936913 12.866574712707123 4.549930013384679 0 -2 0
1524 0 2 0.5897 2.9932959273003763 19.736852107191208 7.609434906070793 0 -4 -2
1 0 1 -1.1794 6.127628119204868 16.986602054720418 6.229562036805331 0 -2 4
2 0 2 0.5897 5.875722930480209 17.569163718855034 5.5083488961397755 0 -2 4
2054 0 2 0.5897 1.3810435610481133 16.232895621441454 7.786787970149826 0 -2 -1
2000 0 2 0.5897 3.835775751112502 18.86900719317881 5.930778839891255 1 0 0
2001 0 2 0.5897 4.960938529876701 19.12155528489352 4.862063113853728 1 0 0
1999 0 1 -1.1794 4.021861604679822 18.996134652151692 4.927058060953994 1 0 0
2053 0 1 -1.1794 1.7255679665678791 16.68218907025936 6.992851979522088 0 -2 -1
2055 0 2 0.5897 2.1719883742970527 17.479373816915857 7.320023495015923 0 -2 -2
33 0 2 0.5897 5.985302776615948 17.57678222206263 8.080750128835604 0 -2 1
1522 0 1 -1.1794 3.306422960902066 18.872026833470887 7.452187166422777 0 -4 -2
1523 0 2 0.5897 3.732199990845238 18.557080208234918 8.274214095732143 0 -4 -2
1531 0 1 -1.1794 6.878962027943767 19.43124458805446 4.4185276616524485 0 -1 -1
1519 0 1 -1.1794 10.62711534515576 17.791759329185812 4.262546495369269 0 -3 1
1570 0 1 -1.1794 7.541481468406492 19.90662097331232 6.897225073245732 0 -1 1
132 0 2 0.5897 11.703928531408296 19.29152070556067 6.469169204264926 0 4 -1
3 0 2 0.5897 7.127854912607009 16.89704501198864 6.102913897559208 0 -2 4
121 0 1 -1.1794 8.98707541024034 16.62105914442238 6.128243041429241 0 -3 -1
1533 0 2 0.5897 7.301195954078288 19.515884518224237 5.291591340875782 1 -1 -1
123 0 2 0.5897 9.740383865700672 16.73904590479991 5.509200426499602 0 -3 -1
1572 0 2 0.5897 8.015387314667123 19.309374681072573 7.510540789144988 0 -1 1
122 0 2 0.5897 9.188957198603143 17.010789485083276 6.972238202630574 0 -3 -1
1081 0 1 -1.1794 5.7091224168051 1.1966692538942905 8.432710737957409 0 1 -2
1082 0 2 0.5897 5.0301825182631905 0.9192467033177918 8.96925985642824 0 1 -2
2135 0 2 0.5897 2.7553322880162496 0.8095549431838905 10.19569843659392 0 0 1
2134 0 1 -1.1794 3.5332817722203043 0.2459581916677553 10.10905498420635 0 0 1
2062 0 1 -1.1794 1.162264505754706 1.9069004737158475 10.6135410689169 0 0 -2
2063 0 2 0.5897 0.7333654337313643 2.217045662382202 9.76831007033897 0 0 -2
249 0 2 0.5897 6.112860606824046 3.0939661702204897 11.074662916497763 1 0 -1
346 0 1 -1.1794 5.507723450634464 1.6055613803915574 11.881491518543562 0 1 2
347 0 2 0.5897 4.66300441173335 1.4618476751385352 11.3798080450863 0 1 1
247 0 1 -1.1794 6.084566871125662 3.7474022469720225 10.31834370308001 1 0 -1
71 0 2 0.5897 1.4735095436693393 3.4934616834391177 11.162063811252175 0 1 -3
348 0 2 0.5897 6.042802705950745 0.8419155458162584 11.665396753934306 0 1 1
2007 0 2 0.5897 5.5514436249747305 3.906651635090604 8.462426720432152 1 -1 0
525 0 2 0.5897 7.420059130081429 1.3833723107872096 9.292440871588946 0 1 -2
523 0 1 -1.1794 8.243989386263948 1.3261963871884823 9.838603529899322 0 1 -2
524 0 2 0.5897 8.07890357531004 1.8509377975886756 10.621603761231743 0 1 -2
310 0 1 -1.1794 8.198367878157919 2.6255402433529165 12.251594188453133 0 2 2
1560 0 2 0.5897 11.326894718254604 1.1840043733084489 8.497950584821924 0 0 -1
312 0 2 0.5897 8.789678993874407 3.412256407939101 12.021377687029888 0 2 2
1558 0 1 -1.1794 10.969693013739917 0.6537105588297469 9.25041683398703 0 0 -1
1559 0 2 0.5897 10.004363836309526 0.7991326078020573 9.2131538544849 0 0 -1
776 0 2 0.5897 11.39794903940479 3.7446253448383584 12.321760507522121 0 -1 -2
317 0 2 0.5897 12.019333565561134 0.4139219565084956 10.920865106371817 0 1 2
53 0 2 0.5897 1.8772794979633596 6.178197040330242 8.592314097960323 0 0 -1
272 0 2 0.5897 2.087822232902731 5.773174067857244 10.960214843455423 0 2 -1
1343 0 2 0.5897 4.98073699723193 6.430455132393776 10.968544232761502 0 -2 0
248 0 2 0.5897 5.705375089377323 4.5103684080984685 10.706047959226016 1 0 -1
1342 0 1 -1.1794 5.919362247744155 6.330987478377048 11.09254305088634 0 -2 0
1344 0 2 0.5897 6.120841616028958 7.121789998908286 11.593912418393705 0 -2 0
271 0 1 -1.1794 2.6771627807515324 6.32338680869609 10.39067660149604 0 2 -1
70 0 1 -1.1794 1.4550600351428826 4.341738810522748 11.671833960139308 0 1 -3
273 0 2 0.5897 2.9006069090061217 7.184321896700041 10.748542049214345 0 2 -1
1258 0 1 -1.1794 7.9920940610813025 7.337709115689649 8.421736488938526 1 -2 0
1805 0 2 0.5897 9.693219388321683 4.203096782645104 8.518843058269217 0 1 0
1882 0 1 -1.1794 8.505302303698443 5.11922457330849 9.760923420424762 0 -1 0
1883 0 2 0.5897 7.7615465426800245 4.499058591266983 9.762854562473123 0 -1 0
1259 0 2 0.5897 8.334584584926642 6.6604041178129 8.97995399934346 1 -2 0
1884 0 2 0.5897 8.50269044932037 5.466252646796731 10.69661000373454 0 -1 0
2224 0 1 -1.1794 9.137265527869454 6.887966478748928 11.846248397003365 1 1 0
777 0 2 0.5897 11.375783857184537 4.5920794053153315 11.136360993000885 0 -1 -2
2225 0 2 0.5897 9.531830983555206 7.439996411183292 11.143885328285704 1 1 0
775 0 1 -1.1794 10.869294300746168 4.464169211627302 11.959619140413825 0 -1 -2
2226 0 2 0.5897 9.807845862285113 7.016885367971118 12.4679241203517 1 1 0
1646 0 2 0.5897 7.80781879899475 8.015548713231915 12.442150311209833 0 0 1
354 0 2 0.5897 0.775313227268607 9.568684782721366 11.422239091444572 0 -1 -2
352 0 1 -1.1794 0.7098015239998946 10.241339024536602 10.692391112976882 0 -1 -2
1292 0 2 0.5897 3.948336589552978 8.837598743716871 12.167326363720068 0 -1 4
1291 0 1 -1.1794 3.7898701272504316 8.860506625007822 11.20701850026537 0 -1 4
1293 0 2 0.5897 3.925148281937304 9.743197991469762 10.874786777053645 0 -1 4
2066 0 2 0.5897 5.329947427329987 8.563750917982444 9.968283223446628 0 1 1
2065 0 1 -1.1794 5.661699863057421 8.687770694445648 9.065734083700118 0 1 1
635 0 2 0.5897 4.457872800194733 10.797522749857006 8.82376804064349 0 0 0
634 0 1 -1.1794 3.692275998548775 11.028716890367484 9.41924346691884 0 0 -1
1598 0 2 0.5897 0.9919599404245556 11.592794997153083 12.057099534657969 0 -5 -3
636 0 2 0.5897 2.9980371715872685 11.341350949030206 8.82627047723669 0 0 -1
1601 0 2 0.5897 6.244380660429732 10.01818479297182 12.140674360429813 0 0 -1
353 0 2 0.5897 1.2480522856214087 9.863350990009508 9.950794568427298 0 -1 -2
2067 0 2 0.5897 6.371718246262449 8.043625174794558 8.941758606540459 0 1 1
1602 0 2 0.5897 6.289697208858913 11.623830637483966 11.946846428397894 0 0 -1
1600 0 1 -1.1794 5.847416353050443 10.854534137174765 12.400917557672953 0 0 -1
1773 0 2 0.5897 11.981129272088225 9.72662984353693 11.766151205283986 0 0 1
1363 0 1 -1.1794 10.808678295257398 8.246781858764964 10.162770815997652 0 -3 -2
1364 0 2 0.5897 11.66924049806465 8.135891865973525 10.623336923375222 0 -3 -2
529 0 1 -1.1794 10.434137469426158 11.263661556452737 9.117801443950967 0 -3 3
1365 0 2 0.5897 10.77104648383239 9.263119228176857 10.05024418946282 0 -3 -2
501 0 2 0.5897 6.925437165782115 10.365890207408512 9.751288777366568 1 0 0
500 0 2 0.5897 8.05410668379132 10.801451370737283 10.679653915203719 1 0 0
499 0 1 -1.1794 7.438669667738868 11.112819237120322 10.001124995473003 1 0 0
531 0 2 0.5897 9.489768809357424 11.36309415433927 9.35432233548093 0 -3 4
1516 0 1 -1.1794 8.849847056106622 10.835105928281314 12.347363372967587 0 -1 0
1518 0 2 0.5897 9.759555326505017 10.62452480093681 12.44739906578754 0 -1 1
1575 0 2 0.5897 5.54226050135648 14.86736891734031 8.592869679121263 0 1 1
1573 0 1 -1.1794 4.5576163014988245 14.882162557402742 8.639245426233535 0 1 1
1620 0 2 0.5897 3.4519587516015044 14.071182668130213 10.122810305426473 0 -2 -3
1619 0 2 0.5897 3.356130881018476 12.622766176362791 10.397679595823146 0 -2 -3
1618 0 1 -1.1794 2.988846413666557 13.491769136576027 10.692022292515853 0 -2 -3
1788 0 2 0.5897 1.0152676580021662 14.112883706168242 9.249616232632013 0 1 2
1599 0 2 0.5897 1.6307438364113587 13.037978562587131 11.89849277247603 0 -5 -3
548 0 2 0.5897 6.028764280730959 13.902480565110524 12.18931752459709 0 -2 -1
840 0 2 0.5897 3.9855256664028382 14.988158350647826 12.325475268206475 0 1 2
820 0 1 -1.1794 2.040974956339164 15.518121932398032 12.493553728080254 0 -1 4
1385 0 2 0.5897 8.064815741993751 14.568052435929205 8.806202742916659 0 0 -1
1607 0 2 0.5897 6.492699481699229 12.58750351369764 8.626054183640901 0 1 2
547 0 1 -1.1794 6.833333269595358 13.297377724066834 11.957564734830108 0 -2 -1
549 0 2 0.5897 6.943613163910192 13.565443984356477 11.038829181216117 0 -2 -1
1384 0 1 -1.1794 7.428113041827847 14.659660626794162 9.521270825959594 0 0 -1
889 0 1 -1.1794 10.064948027428782 13.407218450912675 12.418501408722943 0 1 2
890 0 2 0.5897 9.974043753323254 13.712302685081474 11.50260415149499 0 1 2
1809 0 2 0.5897 11.573221305920265 14.761903958930505 9.811394655086918 0 -1 0
1807 0 1 -1.1794 10.612227555102598 14.789690497596991 10.019080673943796 0 -1 0
1386 0 2 0.5897 7.901122960689602 15.143909434042657 10.23109594762956 0 0 -1
1808 0 2 0.5897 10.139505367839735 14.806561321828434 9.138093095614822 0 -1 0
31 0 1 -1.1794 5.920766166298678 17.995292782218286 8.956630691222873 0 -2 0
2136 0 2 0.5897 3.3922227602843837 19.7111172567978 10.863320867785276 0 -1 1
822 0 2 0.5897 1.4114117472073922 16.1980583871169 12.205863645260607 0 -1 4
480 0 2 0.5897 0.8370781771693026 19.895316073921702 9.24837695888058 1 0 0
32 0 2 0.5897 5.27762136549934 17.412540976364674 9.436717925520986 0 -2 0
2233 0 1 -1.1794 3.229785219562068 18.695364414275836 12.460597527642472 1 0 -1
1073 0 2 0.5897 3.215311941383213 16.317152167155115 9.440149830825073 0 -1 1
1074 0 2 0.5897 1.8055457309773337 16.399388422761675 10.01632604625038 0 -1 1
1072 0 1 -1.1794 2.561824018307407 16.97357789510511 9.87056900815805 0 -1 1
2234 0 2 0.5897 3.295012265557086 17.88496070947479 11.907689580176571 1 0 -1
387 0 2 0.5897 6.896606050851869 19.107562554666337 10.233042451415505 0 0 -1
979 0 1 -1.1794 8.717120444645124 18.067843800036417 8.50601257145664 1 -1 0
386 0 2 0.5897 8.177442822671289 19.56712359633216 11.001890702199 0 0 -1
385 0 1 -1.1794 7.256262294934106 19.234451518859693 11.118804390189485 0 0 -1
981 0 2 0.5897 9.648923380233262 17.939798819931745 8.649332718607644 1 -1 0
1750 0 1 -1.1794 11.525730234775889 18.35566894106322 8.353967133978266 1 -1 0
980 0 2 0.5897 8.301146500535069 17.789148405654622 9.332196985544897 1 -1 0
604 0 1 -1.1794 8.320828415070885 16.53547423176213 11.248714190927386 0 0 2
606 0 2 0.5897 7.923919266323187 17.413861712548893 11.320732686996227 0 0 2
605 0 2 0.5897 9.216033173261172 16.721202359405673 10.909622752619343 0 0 2
140 0 2 0.5897 11.672710067980027 18.045756129681042 11.625276721550135 0 1 0
139 0 1 -1.1794 10.714023892288248 17.885193267466562 11.632505224635095 0 1 0
1752 0 2 0.5897 11.325381863121015 19.22937663350177 8.798574741185545 1 -1 0
141 0 2 0.5897 10.249563624893835 18.59108097392676 12.102733615504071 0 1 0
1751 0 2 0.5897 12.117023450919445 17.859481576448108 8.915521969490003 1 -1 0
35 0 2 0.5897 4.917361811612434 1.2164666090923182 15.32633164175858 0 1 -2
36 0 2 0.5897 5.190798473316829 1.403075225965457 13.752784633054501 0 1 -2
34 0 1 -1.1794 5.5764381209319875 1.3558541062320417 14.617368460471452 0 1 -2
2151 0 2 0.5897 3.0353964586096027 1.756350320695258 16.53857668294734 0 0 0
1012 0 1 -1.1794 1.8029203862672765 3.368542601687825 16.424232653908042 0 1 1
356 0 2 0.5897 6.094269809669536 3.075019169215045 13.978689079406324 0 1 1
2149 0 1 -1.1794 3.593880997376098 0.9161086167259006 16.478469000917404 0 0 0
355 0 1 -1.1794 6.270160322587508 3.8017339884529036 13.387071444826255 0 1 1
1014 0 2 0.5897 2.4666715923802407 3.9957945353956785 16.676929241026535 0 1 1
2263 0 1 -1.1794 12.042637868090807 2.6174944623932306 13.565947275371839 1 0 -2
2265 0 2 0.5897 11.504177087882274 2.027990460087707 14.079014151629707 1 0 -2
311 0 2 0.5897 7.498202714725934 3.0593550429624687 12.689559870961057 0 2 2
1196 0 2 0.5897 8.88461120102849 1.0582306411573437 13.091745422149804 1 1 0
756 0 2 0.5897 7.1586192969330495 1.1859932004073601 15.372810294423491 1 0 1
755 0 2 0.5897 8.649495320034427 1.5281102425243902 15.647908719264962 1 0 1
754 0 1 -1.1794 8.019528163189147 0.8789431508939162 15.806770329724616 1 0 0
565 0 1 -1.1794 9.28901507682427 3.512492437369905 16.308088553858493 0 -1 1
1197 0 2 0.5897 10.039636031476428 0.3009709508789015 13.648437929662128 1 1 0
1195 0 1 -1.1794 9.33627664728399 0.18058681772772203 13.022365735023063 1 1 0
265 0 1 -1.1794 11.16360171820746 0.16627442102432846 14.735591981731517 0 0 -1
267 0 2 0.5897 10.878808301178715 0.1259955130744514 15.651780686787752 0 0 -1
1118 0 2 0.5897 4.137892669853677 5.3068419466622805 12.887393930148612 0 1 1
1119 0 2 0.5897 2.8529314052473564 4.515874993260065 12.8349449092835 0 1 1
558 0 2 0.5897 2.2514126763832656 6.400950420705968 13.968535335753494 0 -1 0
556 0 1 -1.1794 1.9095147734194455 7.2932166179209785 14.200317959629926 0 -1 0
1117 0 1 -1.1794 3.3467301725508785 5.134953808637283 13.426247416903898 0 1 1
1818 0 2 0.5897 2.329637281919503 6.46771960088152 16.328356516372793 0 0 1
855 0 2 0.5897 5.726592458147873 6.449865904849329 15.013871411878387 0 -2 -3
692 0 2 0.5897 4.353272587213329 5.45975502671828 16.16555291875891 1 1 0
693 0 2 0.5897 4.691791893670461 4.545926935142525 14.942779755862668 1 1 0
853 0 1 -1.1794 5.9058266171924405 7.377989208086042 14.872138365067045 0 -2 -3
691 0 1 -1.1794 5.087480605679024 4.9561299536924945 15.721491970119182 1 1 0
557 0 2 0.5897 2.655122343959723 7.913485834741138 14.214964242531602 0 -1 0
539 0 2 0.5897 11.637556633692126 5.808553405622584 16.55253490055957 0 -2 -1
567 0 2 0.5897 9.176161577360654 4.217041771482417 15.572895970374566 0 -1 0
357 0 2 0.5897 6.745478808511182 4.442298341708306 13.949866687893435 0 1 1
2102 0 2 0.5897 8.873201963112066 5.549180142538535 13.777123301310535 0 2 0
2101 0 1 -1.1794 8.26573142098001 5.389100745691408 14.471202724388933 0 2 0
2103 0 2 0.5897 8.329415047672764 6.216500028207792 14.99881267001028 0 2 0
1564 0 1 -1.1794 11.336950309756014 7.1965922100745905 13.68922230811373 0 0 -2
1566 0 2 0.5897 11.258680094704706 6.9615552796679765 14.644809438802657 0 0 -2
1852 0 1 -1.1794 8.292121305816494 7.7682404044004105 16.245369607406072 0 3 0