LAMMPS (23 Jun 2022)
echo both

include		in.partitions
variable        pid world 0
include		in.temp
variable	temperature equal 260.0
variable        tempDamp equal 0.100 # this is 0.1 ps
include		in.pressure
variable        pressure equal 5066.25
variable        pressureDamp equal 1.0 #this is 1ps
include		in.seed
variable        seed world 745823

units           metal
atom_style	full
read_restart	restart.lmp.${pid}
read_restart	restart.lmp.0
Reading restart file ...
  restart file = 23 Jun 2022, LAMMPS = 23 Jun 2022
  restoring atom style full from restart
  orthogonal box = (0.54428042 0 0) to (46.906419 20.047001 20.857)
  4 by 1 by 1 MPI processor grid
Summary of lammps deepmd module ...
  >>> Info of deepmd-kit:
  installed to:       /u/sigbjobo/software/DEEPMD_FROM_SOURCE/deepmd-kit/install
  source:             v2.1.3
  source branch:       master
  source commit:      5a32c49
  source commit at:   2022-07-01 09:52:58 +0800
  surpport model ver.:1.1 
  build float prec:   double
  build with tf inc:  /u/sigbjobo/software/DEEPMD_FROM_SOURCE/tensorflow/install/include;/u/sigbjobo/software/DEEPMD_FROM_SOURCE/tensorflow/install/include
  build with tf lib:  /u/sigbjobo/software/DEEPMD_FROM_SOURCE/tensorflow/install/lib/libtensorflow_cc.so;/u/sigbjobo/software/DEEPMD_FROM_SOURCE/tensorflow/install/lib/libtensorflow_framework.so
  set tf intra_op_parallelism_threads: 0
  set tf inter_op_parallelism_threads: 0
  >>> Info of lammps module:
  use deepmd-kit at:  /u/sigbjobo/software/DEEPMD_FROM_SOURCE/deepmd-kit/install
  source:             v2.1.3
  source branch:      master
  source commit:      5a32c49
  source commit at:   2022-07-01 09:52:58 +0800
  build float prec:   double
  build with tf inc:  /u/sigbjobo/software/DEEPMD_FROM_SOURCE/tensorflow/install/include;/u/sigbjobo/software/DEEPMD_FROM_SOURCE/tensorflow/install/include
  build with tf lib:  /u/sigbjobo/software/DEEPMD_FROM_SOURCE/tensorflow/install/lib/libtensorflow_cc.so;/u/sigbjobo/software/DEEPMD_FROM_SOURCE/tensorflow/install/lib/libtensorflow_framework.so
  restoring pair style deepmd from restart
  2268 atoms
Finding 1-2 1-3 1-4 neighbors ...
  special bond factors lj:    0        0        0       
  special bond factors coul:  0        0        0       
     0 = max # of 1-2 neighbors
     0 = max # of 1-3 neighbors
     0 = max # of 1-4 neighbors
     1 = max # of special neighbors
  special bonds CPU = 0.000 seconds
  read_restart CPU = 0.037 seconds
include 	in.setup
variable	out_freq equal 500
variable	out_freq2 equal 1000
variable	out_freq3 equal 5000

timestep        0.0005

neigh_modify    delay 7 every 1

include         in.deepmd
# This is deepMD model

# create groups ###
#group ox type 2
#group hy type 1

mass 2 15.999
mass 1 1.008

pair_style      deepmd ../graph.pb
pair_coeff      * *

bond_style      none
angle_style     none
dihedral_style  none
improper_style  none
neigh_modify exclude none


neighbor        2.0 bin
neigh_modify    every 10 delay 0 check no

thermo          ${out_freq}
thermo          500
thermo_style 	custom step temp pe etotal epair emol press lx ly lz vol pxx pyy pzz pxy pxz pyz
#thermo_modify	flush yes
restart 	${out_freq} restart.lmp.${pid} restart2.lmp.${pid}
restart 	500 restart.lmp.${pid} restart2.lmp.${pid}
restart 	500 restart.lmp.0 restart2.lmp.${pid}
restart 	500 restart.lmp.0 restart2.lmp.0

include		in.dump
dump            myDump all atom ${out_freq3} dump.water.${pid}
dump            myDump all atom 5000 dump.water.${pid}
dump            myDump all atom 5000 dump.water.0
dump            myDump2 all dcd ${out_freq2} dump.dcd.${pid}
dump            myDump2 all dcd 1000 dump.dcd.${pid}
dump            myDump2 all dcd 1000 dump.dcd.0
dump_modify     myDump append yes
dump_modify     myDump2 append yes


timer           timeout 23:50:00 every 1000
New timer settings: style=normal  mode=nosync  timeout=23:50:00

fix             1 all plumed plumedfile plumed.dat outfile plumed.out
fix             3 all nph x ${pressure} ${pressure} ${pressureDamp}
fix             3 all nph x 5066.25 ${pressure} ${pressureDamp}
fix             3 all nph x 5066.25 5066.25 ${pressureDamp}
fix             3 all nph x 5066.25 5066.25 1
fix             4 all temp/csvr ${temperature} ${temperature} ${tempDamp} ${seed}
fix             4 all temp/csvr 260 ${temperature} ${tempDamp} ${seed}
fix             4 all temp/csvr 260 260 ${tempDamp} ${seed}
fix             4 all temp/csvr 260 260 0.1 ${seed}
fix             4 all temp/csvr 260 260 0.1 745823

run             40000000 upto

CITE-CITE-CITE-CITE-CITE-CITE-CITE-CITE-CITE-CITE-CITE-CITE-CITE

Your simulation uses code contributions which should be cited:

- USER-DEEPMD package:

@article{Wang_ComputPhysCommun_2018_v228_p178,
  author = {Wang, Han and Zhang, Linfeng and Han, Jiequn and E, Weinan},
  doi = {10.1016/j.cpc.2018.03.016},
  url = {https://doi.org/10.1016/j.cpc.2018.03.016},
  year = 2018,
  month = {jul},
  publisher = {Elsevier {BV}},
  volume = 228,
  journal = {Comput. Phys. Commun.},
  title = {{DeePMD-kit: A deep learning package for many-body potential energy representation and molecular dynamics}},
  pages = {178--184}
}

CITE-CITE-CITE-CITE-CITE-CITE-CITE-CITE-CITE-CITE-CITE-CITE-CITE

Generated 0 of 1 mixed pair_coeff terms from geometric mixing rule
Neighbor list info ...
  update every 10 steps, delay 0 steps, check no
  max neighbors/atom: 2000, page size: 100000
  master list distance cutoff = 8
  ghost atom cutoff = 8
  binsize = 4, bins = 12 6 6
  1 neighbor lists, perpetual/occasional/extra = 1 0 0
  (1) pair deepmd, perpetual
      attributes: full, newton on
      pair build: full/bin
      stencil: full/bin/3d
      bin: standard
Per MPI rank memory allocation (min/avg/max) = 6.187 | 6.189 | 6.192 Mbytes
   Step          Temp          PotEng         TotEng         E_pair         E_mol          Press            Lx             Ly             Lz           Volume          Pxx            Pyy            Pzz            Pxy            Pxz            Pyz      
   3757000   257.50172     -353.25596     -277.79952     -353.25596      0              4489.3387      46.362138      20.047001      20.857         19384.951      6267.9735      3664.4317      3535.611      -1134.8037      1071.9349     -897.192      
   3757500   262.538       -352.8333      -275.90107     -352.71553      0              3398.9098      46.333561      20.047001      20.857         19373.003      3527.3934      4138.1975      2531.1384      196.76314      1590.7825     -388.53935    
   3758000   266.44562     -353.13992     -275.06263     -353.02288      0              4910.6433      46.344124      20.047001      20.857         19377.419      5573.942       4561.005       4596.983      -654.84418     -804.90804      327.38881    
   3758500   260.99184     -353.39701     -276.91785     -353.27104      0              3369.8424      46.443423      20.047001      20.857         19418.938      4914.6009      2007.5739      3187.3525     -93.397874     -1674.5153      390.01959    
   3759000   263.26431     -352.39815     -275.25309     -352.2722       0              4488.4305      46.48359       20.047001      20.857         19435.733      5474.2083      5270.0698      2721.0136      1368.5425     -298.59914     -2154.5102    
   3759500   269.76294     -353.40989     -274.36052     -353.28897      0              6217.7684      46.478898      20.047001      20.857         19433.771      7758.1424      6653.6382      4241.5247     -1333.8543     -315.31619      846.75607    
   3760000   267.05044     -354.34535     -276.09083     -354.22795      0              5906.8811      46.66974       20.047001      20.857         19513.566      5039.8507      6498.7391      6182.0535     -138.28761     -2051.3341     -541.68542    
   3760500   252.70511     -352.99612     -278.94525     -352.87245      0              1294.0482      46.926015      20.047001      20.857         19620.719      1830.1831      41.318505      2010.643      -2199.4975     -966.55        -617.14853    
   3761000   256.10563     -353.72477     -278.67744     -353.61263      0              5028.6505      46.670772      20.047001      20.857         19513.997      7857.2985      1933.8952      5294.7579     -1227.2188      1184.4178     -1289.3278    
   3761500   260.22096     -354.37164     -278.11838     -354.25939      0              4962.9331      46.408768      20.047001      20.857         19404.448      7570.4942      2124.3518      5193.9533     -518.9251       1529.5249     -337.04373    
   3762000   258.47223     -353.22577     -277.48495     -353.11343      0              5187.8201      46.816867      20.047001      20.857         19575.082      5767.9672      4674.3009      5121.1923     -1355.7313      248.49526      1458.6847    
   3762500   260.12176     -354.74507     -278.52088     -354.62365      0              4925.5706      47.044811      20.047001      20.857         19670.39       5013.0207      3770.359       5993.332       219.2844       1701.6982      331.63855    
   3763000   259.8851      -353.06883     -276.91398     -352.9428       0              5403.4239      46.359912      20.047001      20.857         19384.02       4254.9209      5119.6914      6835.6595     -1757.5145     -2124.5119     -158.09298    
   3763500   262.34027     -355.4278      -278.55351     -355.31706      0              6112.5802      46.019034      20.047001      20.857         19241.492      5758.2846      6367.3586      6212.0972     -19.046892     -1301.7731     -277.85517    
   3764000   263.09874     -352.2187      -275.12216     -352.09381      0              5613.5067      46.400475      20.047001      20.857         19400.98       5600.2347      3755.3942      7484.8911     -132.71466      1045.9244     -2062.6682    
   3764500   263.8862      -352.65132     -275.32402     -352.53224      0              3876.9912      46.50795       20.047001      20.857         19445.918      3455.4414      4529.5986      3645.9335      834.93472     -77.112379     -215.62488    
   3765000   258.85563     -352.31159     -276.45841     -352.18675      0              6971.8489      46.19569       20.047001      20.857         19315.356      9085.386       6196.2096      5633.9511      476.58096      1487.0732      1777.3319    
   3765500   253.53236     -351.4389      -277.14561     -351.31977      0              4499.6903      46.207781      20.047001      20.857         19320.411      5164.5383      2737.1815      5597.3509     -1221.7424      1771.5931      28.759459    
   3766000   263.95349     -351.66061     -274.31359     -351.53589      0              3356.6208      46.29632       20.047001      20.857         19357.431      3413.4895      2761.2084      3895.1647     -775.18544      69.848377      1012.1424    
   3766500   265.42615     -353.09102     -275.31246     -352.97641      0              6486.7685      46.373712      20.047001      20.857         19389.791      6493.9898      5818.7963      7147.5195      615.2245       565.23357     -640.01067    
   3767000   266.24841     -351.38426     -273.36476     -351.25801      0              5039.2191      46.355143      20.047001      20.857         19382.026      5160.9476      5529.3404      4427.3693     -160.0595      -2611.1348      1080.8379    
   3767500   262.08758     -346.43535     -269.63511     -346.30727      0              5463.2789      46.407987      20.047001      20.857         19404.122      6926.2467      2734.2767      6729.3133      769.39974      558.6345      -333.02709    
   3768000   260.93718     -350.45707     -273.99393     -350.33516      0              4653.6395      46.349529      20.047001      20.857         19379.679      5753.5968      3579.8959      4627.426      -605.80873      285.08333      1368.9216    
   3768500   264.54001     -354.07677     -276.55788     -353.9507       0              5488.6078      46.412424      20.047001      20.857         19405.977      5185.0684      6839.3872      4441.3676     -169.66742      266.56431     -281.94202    
   3769000   263.32235     -351.76417     -274.60209     -351.64205      0              5287.6274      46.712631      20.047001      20.857         19531.499      5351.5975      6414.5946      4096.6902     -577.35746      1859.5581      198.58071    
   3769500   262.52178     -350.13917     -273.21169     -350.01786      0              5622.0474      46.624512      20.047001      20.857         19494.655      7818.2595      4854.4162      4193.4665      254.76813      440.72859      925.08542    
   3770000   264.05139     -350.04681     -272.6711      -349.92644      0              5092.7018      46.056169      20.047001      20.857         19257.019      5180.1099      4333.9422      5764.0533      1456.4103     -290.07823      535.90056    
   3770500   259.11817     -352.19831     -276.2682      -352.07232      0              5993.2522      46.032634      20.047001      20.857         19247.179      6859.2574      4121.2059      6999.2933      416.21931     -639.84574      1643.5952    
   3771000   251.40863     -352.69002     -279.01906     -352.5659       0              5054.8703      46.310068      20.047001      20.857         19363.179      5851.8269      4809.4429      4503.3411      514.29933      1126.075       3061.4856    
   3771500   258.55256     -355.66593     -279.90156     -355.55239      0              4420.5403      46.419954      20.047001      20.857         19409.125      4778.9482      3982.5237      4500.1491     -925.28865     -357.7735      -111.98178    
   3772000   267.6755      -353.83292     -275.39523     -353.71702      0              4137.3915      46.255151      20.047001      20.857         19340.218      4829.4793      3793.3514      3789.3438     -554.60673     -56.154528     -687.10517    
   3772500   254.93887     -351.447       -276.74156     -351.32731      0              5212.0673      46.231894      20.047001      20.857         19330.493      5918.8029      6451.331       3266.068       690.38215     -791.49756     -935.19225    
   3773000   264.0927      -353.39434     -276.00653     -353.27898      0              3389.8014      46.232369      20.047001      20.857         19330.692      4191.2653      4445.3136      1532.8253      73.098656     -442.95137      22.734401    
   3773500   257.80971     -351.82541     -276.27872     -351.72526      0              3295.1429      46.590662      20.047001      20.857         19480.501      2670.2943      2042.862       5172.2725     -1045.4651      556.55691     -1194.049     
   3774000   256.37712     -351.2744      -276.14751     -351.17522      0              2339.6951      46.700494      20.047001      20.857         19526.425      2872.8517      2411.6873      1734.5463     -462.01935     -320.32487      125.08836    
   3774500   260.16778     -351.70867     -275.47099     -351.59654      0              4720.5462      46.125646      20.047001      20.857         19286.069      6060.4725      1804.4924      6296.6737     -1470.5459     -790.69212     -522.13227    
   3775000   255.1936      -352.09637     -277.31629     -351.97367      0              6668.5514      45.952814      20.047001      20.857         19213.804      7159.6639      7891.6335      4954.3569     -0.34833924     623.12942     -815.92858    
   3775500   261.63817     -354.56607     -277.89752     -354.43924      0              4445.3809      46.354524      20.047001      20.857         19381.767      5434.1231      4462.5284      3439.4913     -808.63572     -1371.1158     -395.7983     
   3776000   259.15887     -352.78513     -276.84309     -352.67291      0              5154.5225      46.516718      20.047001      20.857         19449.584      6110.0282      3525.951       5827.5885      911.85787     -2726.9285     -324.01641    
   3776500   255.9831      -351.47172     -276.46028     -351.3578       0              3792.6102      46.397722      20.047001      20.857         19399.83       5480.5971      3128.7577      2768.4757      695.72342     -714.61169      476.92979    
   3777000   257.07394     -353.448       -278.11692     -353.32978      0              5703.8829      46.091353      20.047001      20.857         19271.73       4591.8835      5723.3349      6796.4302     -646.26645      1105.0332     -331.06479    
   3777500   255.27053     -351.67502     -276.8724      -351.55349      0              3037.9601      46.151914      20.047001      20.857         19297.052      1775.6508      2021.9618      5316.2678      320.79889     -198.80063     -870.58657    
   3778000   258.19287     -354.20928     -278.55031     -354.08239      0              3493.9688      46.332768      20.047001      20.857         19372.671      2517.2034      4484.9067      3479.7962     -832.05777     -158.71534      1363.0793    
   3778500   256.0502      -354.80765     -279.77656     -354.69231      0              4293.5201      46.362841      20.047001      20.857         19385.245      3757.7538      4728.8507      4393.9558      561.59714     -1927.0212      1530.16      
   3779000   262.4394      -353.98566     -277.08232     -353.86797      0              3108.1791      46.347162      20.047001      20.857         19378.689      4141.232       2312.7363      2870.5689      1489.5395     -2299.4688     -859.28709    
   3779500   260.10897     -352.07861     -275.85816     -351.96833      0              4163.4556      46.398596      20.047001      20.857         19400.195      4657.6838      5642.3398      2190.343      -763.37369     -1330.3622      462.3655     
   3780000   252.40412     -353.14425     -279.18158     -353.02482      0              4179.2311      46.28972       20.047001      20.857         19354.672      4801.6339      3200.411       4535.6485      1267.948      -341.01977      1196.7177    
   3780500   257.48579     -352.15282     -276.70105     -352.0505       0              4731.9346      46.318449      20.047001      20.857         19366.684      5058.4222      5160.6001      3976.7815     -909.75878     -165.83363      948.19708    
   3781000   262.14199     -351.39266     -274.57648     -351.27147      0              3817.0045      46.342852      20.047001      20.857         19376.887      3511.1018      1860.5753      6079.3364      923.57161     -671.58338      816.87784    
   3781500   256.61671     -351.13414     -275.93704     -351.01512      0              5557.591       46.182196      20.047001      20.857         19309.714      6747.3184      5720.1977      4205.257      -932.03322     -1464.6733      621.60709    
   3782000   272.44461     -351.26547     -271.43028     -351.15061      0              6250.9214      46.194797      20.047001      20.857         19314.983      6616.0606      5012.4616      7124.242      -52.388639      1083.8061     -1338.3643    
   3782500   256.98948     -350.07799     -274.77166     -349.97814      0              4041.1912      46.485367      20.047001      20.857         19436.476      4264.557       2629.7941      5229.2224      664.57067      954.99575      919.63114    
   3783000   264.58847     -349.36459     -271.8315      -349.26989      0              1665.3417      46.365135      20.047001      20.857         19386.204      1228.8573      4248.4173     -481.24943     -1343.3766      1301.5046     -305.73612    
   3783500   253.65571     -350.26606     -275.93663     -350.15867      0              4903.6697      46.235374      20.047001      20.857         19331.949      6255.3893      4556.2464      3899.3736     -679.89382     -289.01551      1039.4252    
   3784000   263.77025     -351.27726     -273.98394     -351.16636      0              3892.5616      46.315018      20.047001      20.857         19365.249      2629.5807      7706.6694      1341.4346     -2011.9352      820.05687      341.38348    
   3784500   261.3837      -351.56317     -274.96919     -351.45484      0              4721.2932      46.401067      20.047001      20.857         19401.228      4144.282       5121.3786      4898.2191     -674.29368      2041.9898      376.81951    
   3785000   260.90808     -352.36837     -275.91376     -352.2517       0              4127.462       46.396839      20.047001      20.857         19399.46       4015.4374      4447.16        3919.7884      328.62136      308.78745     -1754.2069    
   3785500   264.7763      -351.69629     -274.10817     -351.57078      0              4486.6965      46.34702       20.047001      20.857         19378.63       5222.9065      4720.8135      3516.3696     -1037.6273     -665.08785     -645.48233    
   3786000   257.48996     -352.42895     -276.97596     -352.31705      0              3485.9082      46.428257      20.047001      20.857         19412.597      2970.5734      5001.5619      2485.5892     -206.57468     -817.43281      114.17771    
   3786500   261.82419     -350.24578     -273.52272     -350.13443      0              3054.3583      46.513403      20.047001      20.857         19448.198      2653.8348      4405.4892      2103.7508     -523.61626     -68.278803      306.40745    
   3787000   270.31382     -348.05715     -268.84635     -347.9505       0              4475.0433      46.147449      20.047001      20.857         19295.185      6912.4015      2452.2052      4060.5232     -422.11542     -916.07705      1932.813     
   3787500   263.74379     -350.23802     -272.95245     -350.12807      0              4193.391       46.089796      20.047001      20.857         19271.079      5487.6681      4972.3449      2120.1601      332.98674      1369.2909     -20.917503    
   3788000   268.63398     -349.89456     -271.17601     -349.78214      0              4953.5798      46.418054      20.047001      20.857         19408.33       6098.48        5501.2689      3260.9903      2058.5121      114.61759     -893.2828     
   3788500   269.46468     -352.57148     -273.60951     -352.4773       0              3539.9199      46.359091      20.047001      20.857         19383.677      4255.6211      2210.3582      4153.7804     -177.87433     -205.04271     -8.7960674    
   3789000   261.78391     -350.22525     -273.514       -350.11862      0              4347.0581      45.973719      20.047001      20.857         19222.545      6203.3775      4603.9862      2233.8106      908.6923       70.380078      368.53059    
   3789500   259.07109     -348.51762     -272.6013      -348.40113      0              6368.6676      46.010611      20.047001      20.857         19237.97       7137.0849      5595.3708      6373.5472     -1400.8896      394.29361      1378.973     
   3790000   264.90133     -350.80342     -273.17866     -350.68827      0              4467.1875      46.394601      20.047001      20.857         19398.525      6194.1374      2360.4226      4847.0026      18.331688     -614.30265     -332.95837    
   3790500   255.29743     -351.59364     -276.78313     -351.47955      0              4996.6564      46.565757      20.047001      20.857         19470.088      4084.8916      6394.0178      4511.0598     -983.77076     -727.46176     -335.64981    
   3791000   253.88672     -351.48905     -277.09192     -351.42804      0              3705.2203      46.468143      20.047001      20.857         19429.274      3578.1612      3401.6792      4135.8206     -749.75461     -1177.1775      746.7848     
   3791500   260.56774     -354.28549     -277.93061     -354.16181      0              6586.3076      46.231129      20.047001      20.857         19330.174      4876.8932      7979.5113      6902.5181     -751.66005     -543.60624     -1852.2104    
   3792000   261.36738     -354.99144     -278.40224     -354.88538      0              6149.6764      46.457654      20.047001      20.857         19424.888      5491.7285      8787.1432      4170.1574     -522.66671      645.39627      1013.7191    
   3792500   261.93743     -351.82445     -275.06821     -351.72812      0              5109.8536      46.54929       20.047001      20.857         19463.203      3576.8212      5620.9439      6131.7955     -1946.867      -170.50693      1412.4077    
   3793000   262.81999     -351.91776     -274.90289     -351.79195      0              4069.6507      46.239432      20.047001      20.857         19333.645      4274.187       5409.7122      2525.0528     -187.03424      403.37841     -1333.2508    
   3793500   258.38303     -352.15129     -276.4366      -352.03041      0              4872.0693      46.158527      20.047001      20.857         19299.817      6197.3487      3971.6715      4447.1878     -208.17137     -223.73615     -96.530711    
   3794000   257.19593     -351.25296     -275.88613     -351.14617      0              3161.825       46.423068      20.047001      20.857         19410.427      4994.8298      859.69948      3630.9457     -267.65502     -118.62371     -343.72102    
   3794500   261.60197     -352.48725     -275.82931     -352.37909      0              5545.2446      46.521504      20.047001      20.857         19451.585      7865.1448      5069.3236      3701.2653     -881.98906     -839.90601     -944.61163    
   3795000   263.97599     -350.0788      -272.72519     -349.96124      0              3046.7594      46.292203      20.047001      20.857         19355.71       4171.4745      481.44538      4487.3585     -304.41511      694.50999     -195.70976    
   3795500   260.56407     -350.47096     -274.11715     -350.3519       0              4605.9059      46.186971      20.047001      20.857         19311.71       5689.5342      2587.2925      5540.8909     -1266.5828     -6.2185144      2088.5096    
   3796000   257.7764      -351.92465     -276.38772     -351.82132      0              3798.8114      46.348831      20.047001      20.857         19379.387      6317.2751      1541.5911      3537.5679      536.4117       1110.1454      968.58108    
   3796500   264.63673     -350.99475     -273.44752     -350.87064      0              5027.9476      46.307085      20.047001      20.857         19361.932      6614.1725      2977.2646      5492.4058      222.44586     -434.47482     -981.45353    
   3797000   260.33933     -352.44928     -276.16133     -352.32592      0              3715.8387      46.329248      20.047001      20.857         19371.199      3534.9125      4001.8845      3610.719      -533.92403      1350.142       879.52714    
   3797500   260.43488     -352.82659     -276.51065     -352.71489      0              3620.2554      46.226559      20.047001      20.857         19328.263      5489.3231      4027.6847      1343.7584      498.04812      864.30147     -563.82726    
   3798000   257.58322     -352.87923     -277.39891     -352.78222      0              5486.9965      46.204544      20.047001      20.857         19319.058      6875.9535      3619.787       5965.2489     -112.1838       1149.2974     -1784.8767    
   3798500   255.90052     -350.15125     -275.16401     -350.04763      0              5664.4675      46.358563      20.047001      20.857         19383.456      6580.4591      5648.3268      4764.6165      375.06518      690.58991     -441.7443     
   3799000   260.37101     -351.16058     -274.86335     -351.06198      0              3192.2945      46.473193      20.047001      20.857         19431.385      5406.5585      2651.5646      1518.7603      1080.5511     -268.06128     -866.95039    
   3799500   257.11938     -349.74755     -274.40315     -349.6469       0              4845.1578      46.481857      20.047001      20.857         19435.008      4296.6869      4829.377       5409.4094     -432.79894      897.70124      165.89272    
   3800000   252.26265     -348.45295     -274.53174     -348.35632      0              3771.0014      46.621366      20.047001      20.857         19493.34       5835.7289      3018.6054      2458.6699      833.51925      945.14455      315.74765    
   3800500   266.58227     -352.94276     -274.82542     -352.8333       0              3379.3505      46.727654      20.047001      20.857         19537.781      1897.9541      5390.2129      2849.8846      640.11413     -215.41927     -1169.1967    
   3801000   255.28447     -351.83344     -277.02673     -351.72612      0              5935.0817      46.317703      20.047001      20.857         19366.372      6455.1856      7123.518       4226.5413     -2020.6886      185.33856      1675.9976    
   3801500   262.98589     -352.64667     -275.58319     -352.54548      0              4288.2411      46.158153      20.047001      20.857         19299.661      3418.3057      6029.0843      3417.3332     -921.89616      879.61125     -1741.8973    
   3802000   257.81036     -353.21709     -277.67021     -353.11115      0              3437.1724      46.212587      20.047001      20.857         19322.421      3512.5941      4238.9553      2559.9679     -671.75724     -125.75855      707.32605    
   3802500   250.46232     -352.16158     -278.76791     -352.06902      0              5765.8491      46.295119      20.047001      20.857         19356.929      7227.5935      5600.716       4469.2378      1344.4636      1244.6155     -368.26762    
   3803000   260.30049     -352.79143     -276.51486     -352.68054      0              4973.8989      46.213745      20.047001      20.857         19322.905      4575.3441      6065.0613      4281.2915     -550.21831      957.17127      54.344649    
   3803500   261.24757     -351.54652     -274.99242     -351.44746      0              5630.6938      46.326653      20.047001      20.857         19370.114      5036.1918      8281.773       3574.1167      705.39439      232.57429     -677.73205    
   3804000   263.40862     -351.57367     -274.38631     -351.46271      0              5362.2645      46.376401      20.047001      20.857         19390.915      8768.055       3296.558       4022.1805      642.56883      2293.1756     -1194.1158    
   3804500   259.3217      -348.67439     -272.68464     -348.57997      0              3553.5539      46.176899      20.047001      20.857         19307.499      4018.7835      5045.4957      1596.3824     -1490.7158     -920.06369      70.247924    
   3805000   255.74059     -349.84015     -274.89978     -349.74644      0              5168.8245      45.950881      20.047001      20.857         19212.996      8276.8998      3360.0421      3869.5317      401.54756     -763.19387      587.2078     
   3805500   259.84756     -350.50971     -274.36586     -350.41843      0              3238.6573      46.230053      20.047001      20.857         19329.723      4047.1776      2549.4206      3119.3736     -608.19251     -610.83509     -495.01058    
   3806000   263.25766     -349.85656     -272.71345     -349.75422      0              4257.7435      46.413978      20.047001      20.857         19406.626      5873.8364      2701.9265      4197.4676      223.184        242.8033       1258.7113    
   3806500   270.30176     -348.64878     -269.44152     -348.56039      0              3489.9496      46.346455      20.047001      20.857         19378.394      5040.3176      2479.9995      2949.5317     -1637.5096     -124.29955      716.47659    
   3807000   261.04437     -349.8893      -273.39475     -349.79815      0              5522.0647      46.252995      20.047001      20.857         19339.316      5794.2246      4493.3051      6278.6642      1151.2708      1151.3431      1230.5858    
   3807500   261.60213     -351.39769     -274.7397      -351.30393      0              4962.7298      45.973631      20.047001      20.857         19222.508      6419.3003      6009.7489      2459.1402     -402.10359      143.23379      403.29585    
   3808000   270.0014      -350.16851     -271.04926     -350.07869      0              4319.3362      45.844283      20.047001      20.857         19168.425      6391.0675      3563.6402      3003.301      -554.73737      1879.0662      536.66048    
   3808500   261.77181     -350.40855     -273.70084     -350.33738      0              2727.9194      46.304622      20.047001      20.857         19360.902      3692.9777      2845.6039      1645.1767      327.64701      1803.4938      452.76965    
   3809000   260.45053     -351.64437     -275.32384     -351.54859      0              5402.1404      46.331954      20.047001      20.857         19372.331      7226.108       4241.5146      4738.7988     -1950.5946     -3980.4006      179.64058    
   3809500   268.23943     -350.98998     -272.38704     -350.9013       0              4791.6617      46.088016      20.047001      20.857         19270.335      5200.5505      5892.3764      3282.0581      173.53736      1118.2288      171.97309    
   3810000   261.79514     -352.54706     -275.83251     -352.44286      0              4134.271       46.126089      20.047001      20.857         19286.254      5104.5835      2457.3806      4840.8489      336.01073      889.30392      130.22445    
   3810500   260.28064     -351.56415     -275.2934      -351.46161      0              4830.8961      46.062082      20.047001      20.857         19259.492      7754.1846      4535.7828      2202.721       112.76729     -151.6336      -1247.3978    
   3811000   264.90148     -350.58331     -272.9585      -350.49468      0              5409.317       45.9818        20.047001      20.857         19225.924      4854.1155      5453.9977      5919.8379      523.18169      852.67387     -418.05048    
   3811500   252.25029     -352.56794     -278.65034     -352.4559       0              4723.0912      46.041247      20.047001      20.857         19250.78       7564.653       3791.3627      2813.2577      650.9912       685.90263      496.85643    
   3812000   264.61516     -351.85337     -274.31246     -351.76745      0              3223.0967      46.272977      20.047001      20.857         19347.671      4336.157       3391.8678      1941.2653      216.67348     -376.68762      616.12905    
   3812500   261.34104     -352.539       -275.95751     -352.44237      0              4585.5061      46.044806      20.047001      20.857         19252.268      6110.4818      4015.2464      3630.7901     -877.90013     -835.53598      2207.0828    
   3813000   265.79281     -350.03074     -272.14474     -349.93738      0              5148.0573      45.933777      20.047001      20.857         19205.845      6614.4897      5185.1718      3644.5105     -1318.5437     -2168.8387     -85.461707    
   3813500   255.67297     -349.60914     -274.68859     -349.52496      0              2712.5667      46.235411      20.047001      20.857         19331.964      1596.4689      5149.0413      1392.19        219.9539      -89.439221     -1228.2364    
   3814000   254.45489     -353.34634     -278.78272     -353.22593      0              3566.4978      46.276345      20.047001      20.857         19349.079      5810.6102      1870.7973      3018.0858     -467.74874      423.77497      21.63423     
   3814500   262.81356     -353.29737     -276.28439     -353.19388      0              5831.5461      45.988753      20.047001      20.857         19228.831      7945.5637      4717.8747      4831.1999     -298.29987      918.94551     -319.12605    
   3815000   259.62684     -353.10384     -277.02467     -353.02304      0              4216.543       46.022829      20.047001      20.857         19243.079      4234.6796      4465.2249      3949.7245     -337.56391      588.74255     -1074.9886    
   3815500   258.67522     -350.33069     -274.53038     -350.24322      0              3319.5007      46.140671      20.047001      20.857         19292.351      3301.4225      2069.1047      4587.9749      1216.3584      201.0416       540.10623    
   3816000   264.97848     -353.90941     -276.26203     -353.80591      0              4099.7525      46.098839      20.047001      20.857         19274.86       4294.6455      2730.975       5273.6371      809.04775      1532.9698      73.022178    
   3816500   261.90088     -351.21022     -274.46469     -351.11391      0              5005.1931      46.005311      20.047001      20.857         19235.754      5857.9791      2930.3692      6227.2311     -343.99147     -1512.1522      791.90194    
   3817000   261.00625     -352.36847     -275.88509     -352.26927      0              3958.9672      46.059864      20.047001      20.857         19258.564      2581.8843      4711.9608      4583.0566     -83.630914      896.61        -1049.2893    
   3817500   264.8209      -352.49919     -274.89799     -352.39451      0              3312.6301      46.150649      20.047001      20.857         19296.523      3181.7234      3433.7888      3322.378      -522.87332      1088.6256     -1000.8594    
   3818000   261.10251     -352.67286     -276.16127     -352.59387      0              4377.8632      46.053268      20.047001      20.857         19255.806      1898.3811      6817.5987      4417.6098     -719.15737      1083.9137     -1589.3226    
   3818500   263.05338     -350.69481     -273.61155     -350.58778      0              3444.1081      45.847629      20.047001      20.857         19169.824      2022.2189      5862.4506      2447.6548      1037.329       1710.6718      504.03531    
   3819000   263.12796     -351.30048     -274.19537     -351.20029      0              6065.3157      45.964363      20.047001      20.857         19218.633      5592.2027      5077.9243      7525.8202      186.86856     -425.04296      139.34171    
   3819500   263.03666     -352.3853      -275.30695     -352.28989      0              3958.9239      46.078169      20.047001      20.857         19266.218      3609.6413      5272.888       2994.2423     -739.43248      933.51748      380.16172    
   3820000   266.46759     -348.72794     -270.64421     -348.61406      0              4623.7221      45.92134       20.047001      20.857         19200.644      3598.5816      5874.288       4398.2967      177.98545     -603.71592     -20.886778    
   3820500   261.25488     -351.72809     -275.17186     -351.62086      0              6730.132       46.039908      20.047001      20.857         19250.22       4380.9967      9578.87        6230.5292     -74.278241     -1850.9321     -908.62775    
   3821000   263.72106     -349.61598     -272.33707     -349.52865      0              4764.7108      46.047332      20.047001      20.857         19253.324      6415.5038      2786.7356      5091.8932     -2215.2528     -840.35409     -717.69758    
   3821500   256.03833     -350.96924     -275.94163     -350.87307      0              4666.7998      45.822431      20.047001      20.857         19159.289      5639.1271      4283.7965      4077.4757     -792.5314       1477.0238      891.99391    
   3822000   259.37459     -354.48309     -278.47784     -354.39591      0              7079.9036      45.785042      20.047001      20.857         19143.655      7339.8504      8277.848       5622.0122     -751.08283     -511.35154      1910.0988    
   3822500   255.77687     -352.98991     -278.03891     -352.89206      0              5198.8362      45.968864      20.047001      20.857         19220.515      5130.2194      4563.4555      5902.8336     -99.009192     -431.30295      142.55818    
   3823000   261.85032     -349.84066     -273.10994     -349.74177      0              6518.1025      46.246119      20.047001      20.857         19336.441      6472.3328      7436.4977      5645.477      -652.53879     -1292.2737     -266.20241    
   3823500   266.20375     -350.36402     -272.3576      -350.26379      0              5403.6756      46.316295      20.047001      20.857         19365.783      5806.5239      4121.0266      6283.4763     -716.72629     -455.75102     -1034.4792    
   3824000   258.15953     -351.97155     -276.32235     -351.8667       0              5616.6531      45.876651      20.047001      20.857         19181.959      7274.4811      6778.2398      2797.2383      578.2311       129.03835     -385.90771    
   3824500   259.8238      -353.42869     -277.29181     -353.3239       0              4769.1694      45.866897      20.047001      20.857         19177.881      4827.9479      6135.2451      3344.3153      454.1703       881.9341       70.117177    
   3825000   257.83448     -353.89724     -278.3433      -353.79004      0              3350.7585      46.110168      20.047001      20.857         19279.597      3244.7036      3271.5268      3536.045      -854.88925     -1405.1998     -1042.5907    
   3825500   264.33567     -352.10002     -274.64101     -351.97671      0              4711.7712      46.09664       20.047001      20.857         19273.941      5574.1688      5587.9651      2973.1796     -1019.5462      1042.457       2315.6486    
   3826000   253.8164      -352.11516     -277.73865     -351.99217      0              3572.1113      46.183395      20.047001      20.857         19310.215      3962.8482      3071.4069      3682.0789      233.42968     -460.50725     -1345.0279    
   3826500   263.35398     -353.46065     -276.28931     -353.37866      0              3221.3266      46.057365      20.047001      20.857         19257.519      3519.6936      4407.1683      1737.1178     -994.8223       204.12213      1270.2718    
   3827000   256.92412     -353.23232     -277.94514     -353.13677      0              6047.0472      45.975443      20.047001      20.857         19223.266      7366.1357      4881.6998      5893.3061     -145.61953      1862.7711     -1772.9305    
   3827500   251.952       -352.07207     -278.24189     -351.97195      0              4672.5326      46.217812      20.047001      20.857         19324.606      4961.8986      3934.4807      5121.2186      2696.5132     -1202.6256     -1406.6158    
   3828000   254.91929     -352.72139     -278.02169     -352.63335      0              5575.4899      46.297102      20.047001      20.857         19357.758      6737.7052      3459.6234      6529.1413      498.71436      1416.0662     -1134.3323    
   3828500   261.77393     -351.78962     -275.08129     -351.66987      0              3717.4964      45.841358      20.047001      20.857         19167.202      1991.0595      5560.6446      3600.7851     -732.86726     -826.3657       550.16498    
   3829000   264.49689     -349.53923     -272.03298     -349.44562      0              5905.0786      46.110255      20.047001      20.857         19279.634      5928.8198      5808.674       5977.742       182.97682     -1547.6912     -289.53798    
   3829500   260.14793     -352.20701     -275.97514     -352.09314      0              4367.2499      46.506495      20.047001      20.857         19445.31       2764.7025      6228.869       4108.1781     -2259.8505      41.883721      149.14407    
   3830000   258.99276     -352.56499     -276.67163     -352.44794      0              5570.3489      46.180425      20.047001      20.857         19308.973      6748.344       6235.2777      3727.425      -493.65197      502.49411      1229.7706    
   3830500   260.1446      -350.00346     -273.77258     -349.8909       0              8160.7586      46.197778      20.047001      20.857         19316.229      9815.645       7351.1443      7315.4866     -772.79374      429.23032     -814.63907    
   3831000   262.93382     -352.61298     -275.56476     -352.5155       0              4411.1771      46.396133      20.047001      20.857         19399.165      3969.6666      6572.8033      2691.0615     -537.20463      700.46484      206.8759     
   3831500   259.58807     -351.8859      -275.8181      -351.78605      0              3758.4534      46.270994      20.047001      20.857         19346.842      3416.4263      4533.4723      3325.4614      758.08402      553.66867      435.11503    
   3832000   265.56883     -352.06803     -274.24766     -351.95188      0              4197.0051      46.134812      20.047001      20.857         19289.901      5496.0887      5755.166       1339.7608     -366.11444      644.36254      269.40495    
   3832500   263.88396     -353.1832      -275.85656     -353.06637      0              4413.0852      46.152265      20.047001      20.857         19297.199      5869.6247      4880.6386      2488.9923     -1425.0901     -627.96786     -568.97806    
   3833000   257.43595     -352.21222     -276.77505     -352.11199      0              5889.9772      46.389231      20.047001      20.857         19396.279      7363.3929      5976.7525      4329.7862     -464.57375     -665.11698      1307.1746    
   3833500   248.57202     -354.31952     -281.47978     -354.19916      0              4375.1039      46.371105      20.047001      20.857         19388.7        5399.7338      4000.6448      3724.9331     -222.99806     -1537.832       1248.1797    
   3834000   255.04206     -355.38683     -280.65116     -355.27122      0              5833.557       45.954743      20.047001      20.857         19214.611      6885.2364      7125.4735      3489.961      -765.86742     -345.52035     -1757.1501    
   3834500   261.2071      -354.21431     -277.67208     -354.09969      0              4967.042       45.806654      20.047001      20.857         19152.692      6978.1966      3565.1725      4357.7568      460.43784     -1007.5407      1183.7128    
   3835000   264.74366     -351.15821     -273.57964     -351.04405      0              1895.542       46.315203      20.047001      20.857         19365.326      2471.1079      2556.2908      659.22713      1186.3871      194.86512     -599.27803    
   3835500   256.09328     -352.81304     -277.76932     -352.7129       0              4684.3548      46.362101      20.047001      20.857         19384.936      4702.6696      5283.1072      4067.2877     -63.669233      743.04529     -1741.7891    
   3836000   260.28617     -355.05812     -278.78574     -354.9579       0              4686.8365      46.228809      20.047001      20.857         19329.204      5438.9381      4302.5827      4318.9889      1251.5618     -1255.8231      544.33146    
   3836500   259.23303     -351.93761     -275.97384     -351.84682      0              5200.1181      46.192699      20.047001      20.857         19314.105      6543.0656      4026.0482      5031.2406      1082.5323      704.27974      563.13017    
   3837000   261.10016     -352.46546     -275.95456     -352.36976      0              3944.8009      46.340435      20.047001      20.857         19375.877      5574.4058      3011.578       3248.419      -14.640512     -2334.237      -2336.5294    
   3837500   258.58526     -352.82102     -277.04707     -352.72391      0              3265.724       46.470215      20.047001      20.857         19430.14       4632.542       3432.0286      1732.6013      717.8528      -235.08756      561.84146    
   3838000   261.79095     -353.25297     -276.53964     -353.15978      0              4057.5997      46.308275      20.047001      20.857         19362.43       2557.5123      6049.2066      3566.0803      189.56334      999.4448       374.24391    
   3838500   258.98012     -352.69008     -276.80042     -352.59302      0              7895.0023      46.060091      20.047001      20.857         19258.659      9468.0956      8932.2364      5284.6748      396.66211     -425.76416      2300.9788    
   3839000   254.85255     -352.27054     -277.59039     -352.15694      0              3792.4904      46.141608      20.047001      20.857         19292.743      6792.7502      1364.2918      3220.4293      250.03884     -1302.3803     -1186.1334    
   3839500   268.32837     -350.92316     -272.29417     -350.82154      0              2976.5835      46.234938      20.047001      20.857         19331.766      731.04776      6209.6512      1989.0514      78.372884      962.43602      1486.1969    
   3840000   260.12413     -351.26043     -275.03554     -351.15909      0              5108.9956      46.368423      20.047001      20.857         19387.579      6304.7955      6047.7544      2974.4371      878.62899     -142.43058     -446.65932    
   3840500   260.856       -351.82123     -275.38187     -351.72511      0              2368.1757      46.376383      20.047001      20.857         19390.907      4686.5174      1200.9653      1217.0446      666.2273      -1623.3347      487.97147    
   3841000   267.21652     -349.66267     -271.35948     -349.55379      0              4811.8711      45.982346      20.047001      20.857         19226.152      5118.1261      5098.4019      4219.0853      75.704897      436.72592     -2335.4108    
   3841500   254.37664     -351.9109      -277.37022     -351.82746      0              3743.9201      46.223912      20.047001      20.857         19327.156      5756.2415      3864.0681      1611.4508     -23.144438     -612.49163     -914.71583    
   3842000   256.48743     -352.54441     -277.3852      -352.45571      0              2047.9011      46.475206      20.047001      20.857         19432.227      2774.4931      1305.359       2063.8513      98.510537     -159.26526      1092.0433    
   3842500   263.81204     -350.57451     -273.26894     -350.47786      0              4407.9009      46.331237      20.047001      20.857         19372.031      6555.3341      1694.1223      4974.2465      984.53613     -687.36299      305.94606    
   3843000   264.23973     -351.99723     -274.56634     -351.91652      0              3587.7719      46.338311      20.047001      20.857         19374.988      3653.6277      4596.5073      2513.1807      716.42431      181.00411      866.74729    
   3843500   254.21585     -352.73919     -278.24562     -352.6203       0              4160.0646      46.064792      20.047001      20.857         19260.625      7270.2678      2008.3355      3201.5905     -1041.4627     -404.97478      116.73416    
   3844000   264.11762     -354.01746     -276.62235     -353.90176      0              3531.0859      46.003836      20.047001      20.857         19235.138      5419.8978      1013.5854      4159.7746     -967.82601     -431.70112     -607.49442    
   3844500   257.76384     -351.1088      -275.57555     -351.01351      0              3751.188       46.132277      20.047001      20.857         19288.842      6230.6826      4071.3463      951.53506      1302.0558      2093.5492      1708.9556    
   3845000   260.72775     -350.01552     -273.61375     -349.91584      0              5475.9172      46.166792      20.047001      20.857         19303.273      5952.161       4378.3084      6097.2823     -716.58411      852.01258      218.65996    
   3845500   260.82215     -350.71118     -274.28175     -350.61424      0              4520.7443      46.124583      20.047001      20.857         19285.625      4281.5037      4456.1681      4824.5611      1178.7533     -752.34479      722.23953    
   3846000   251.07869     -353.45413     -279.87985     -353.35741      0              5147.4558      46.088875      20.047001      20.857         19270.694      6370.0266      4578.3853      4493.9555      474.0706       933.71395     -2427.5658    
   3846500   254.24144     -354.49382     -279.99275     -354.39333      0              3291.7333      46.150124      20.047001      20.857         19296.304      4502.232       2800.0196      2572.9481      1727.8408      2105.602      -25.503733    
   3847000   249.72114     -353.5804      -280.40393     -353.48686      0              4427.0968      46.091028      20.047001      20.857         19271.594      5438.5247      4408.917       3433.8486     -2200.3394      814.43227      3.5126694    
   3847500   259.98579     -350.85704     -274.67269     -350.78049      0              4536.7625      46.096818      20.047001      20.857         19274.015      6231.832       4552.0993      2826.3562      883.2643      -1861.8852      420.15093    
   3848000   257.6459      -352.22563     -276.72695     -352.14154      0              4525.785       46.086688      20.047001      20.857         19269.78       6256.8752      3557.8532      3762.6265      290.93962      2016.0205      431.0832     
   3848500   256.52605     -352.94801     -277.77747     -352.85685      0              5942.3255      45.995618      20.047001      20.857         19231.701      6966.1662      4533.094       6327.7162      663.39623     -61.203474      100.99143    
   3849000   252.34615     -349.07274     -275.12706     -348.99326      0              2078.0754      46.030134      20.047001      20.857         19246.133      3218.65        1965.208       1050.3683      49.745168     -332.60801      1055.7076    
   3849500   258.00146     -350.04741     -274.44454     -349.95608      0              4773.8024      46.178851      20.047001      20.857         19308.315      5959.5035      1957.1025      6404.8012      715.35429      85.27822      -1789.7324    
   3850000   259.18037     -350.09133     -274.14299     -350.01685      0              3041.6151      46.294096      20.047001      20.857         19356.501      6024.43        1912.7558      1187.6594     -811.7969      -46.897188     -184.99938    
   3850500   252.44197     -350.37751     -276.40375     -350.28478      0              2574.607       46.066894      20.047001      20.857         19261.503      2525.7318      2352.9576      2845.1315      755.44825     -740.5403      -458.64188    
   3851000   264.58202     -353.44144     -275.91024     -353.34704      0              5500.7805      46.129479      20.047001      20.857         19287.672      6469.5986      5189.4334      4843.3095      1704.6884      1212.3163     -1224.7407    
   3851500   256.17492     -350.63541     -275.56777     -350.54899      0              3673.6761      46.264434      20.047001      20.857         19344.099      4060.6468      3900.2391      3060.1425      613.88452      507.29664     -81.112896    
   3852000   258.1754      -351.42192     -275.76807     -351.34291      0              6003.9675      46.10419       20.047001      20.857         19277.098      7863.9964      4209.5455      5938.3605      695.76792      672.47345      1478.1049    
   3852500   257.37161     -350.11068     -274.69237     -350.0169       0              4958.8847      46.107445      20.047001      20.857         19278.459      3601.379       5778.2465      5497.0285     -115.71594      411.68247     -614.87504    
   3853000   260.99597     -351.74395     -275.26358     -351.64968      0              3282.3325      46.285753      20.047001      20.857         19353.013      4251.5403      3400.8136      2194.6436      930.85959      901.65499     -432.01366    
   3853500   259.41851     -352.48681     -276.46869     -352.41037      0              4382.4075      46.23389       20.047001      20.857         19331.328      5108.8251      1488.5459      6549.8515     -871.22888     -131.48911     -174.6949     
   3854000   257.20394     -351.1857      -275.81653     -351.10593      0              4789.6648      46.088027      20.047001      20.857         19270.34       4095.5204      6671.4911      3601.9828      292.05496      2219.8545      1337.8188    
   3854500   251.87046     -349.80843     -276.00213     -349.7142       0              4198.9476      46.00795       20.047001      20.857         19236.858      2742.0919      4939.3961      4915.3549     -566.13431      891.304       -783.20294    
   3855000   261.83306     -353.20878     -276.48312     -353.11519      0              5969.6539      45.908485      20.047001      20.857         19195.269      8405.7384      5581.0486      3922.1749      104.40139      282.88763     -933.87388    
   3855500   258.34483     -353.14887     -277.44537     -353.05787      0              3208.8416      45.924826      20.047001      20.857         19202.102      2732.4574      3652.9661      3241.1013     -671.21466      381.36127      769.03868    
   3856000   263.51671     -352.12653     -274.9075      -352.0331       0              4895.6207      46.188014      20.047001      20.857         19312.146      4315.4883      5354.0567      5017.3171     -47.648992     -1299.5534     -275.74248    
   3856500   260.09525     -349.57619     -273.35976     -349.49667      0              4253.9478      46.304187      20.047001      20.857         19360.721      3599.6895      4114.2803      5047.8735      57.613187      631.89832      46.358117    
   3857000   262.38044     -349.75119     -272.86513     -349.65964      0              4406.1739      46.029781      20.047001      20.857         19245.986      3228.2696      5993.447       3996.8052     -1125.7804     -79.885522     -970.64266    
   3857500   257.95405     -350.05327     -274.46428     -349.98279      0              3665.7625      45.933672      20.047001      20.857         19205.801      5349.2244      2939.8272      2708.2359      216.53109      197.57066     -1352.854     
   3858000   257.0219      -351.23723     -275.9214      -351.16964      0              3221.6502      46.150627      20.047001      20.857         19296.514      2689.0746      4093.3675      2882.5084     -1553.8737      1108.2477     -971.39941    
   3858500   266.25366     -353.26417     -275.24313     -353.17339      0              4100.1996      46.285653      20.047001      20.857         19352.971      5123.5815      3640.6978      3536.3195     -685.88857     -266.48318      1275.7967    
   3859000   257.79897     -349.81344     -274.2699      -349.73202      0              3551.5925      46.237434      20.047001      20.857         19332.81       3827.2243      4498.5958      2328.9574     -1937.0486     -20.970598     -409.77196    
   3859500   261.8981      -353.24712     -276.5024      -353.17558      0              5516.6188      46.158972      20.047001      20.857         19300.003      7490.3008      5570.9849      3488.5706      845.36176      1544.3375      700.61552    
   3860000   257.74487     -353.31843     -277.79075     -353.25442      0              3891.1758      46.183397      20.047001      20.857         19310.216      7216.9222      2099.5918      2357.0134      428.25467      972.6875       2065.8144    
   3860500   261.53891     -353.4444      -276.80494     -353.35639      0              3328.5177      46.067575      20.047001      20.857         19261.788      3230.4193      4834.8733      1920.2604     -563.61699      37.84488      -388.60024    
   3861000   259.25384     -350.42116     -274.4513      -350.33066      0              5649.4473      45.912853      20.047001      20.857         19197.096      5677.0191      6239.4538      5031.869      -697.6326      -350.27815     -140.83822    
   3861500   259.28598     -352.51152     -276.53223     -352.41922      0              3692.687       46.188643      20.047001      20.857         19312.409      4386.2098      2910.3267      3781.5244      265.40371     -55.626586      1781.5257    
   3862000   257.97078     -350.3887      -274.79482     -350.30807      0              4302.7443      46.225812      20.047001      20.857         19327.95       3966.0882      4850.0267      4092.1178     -837.76699      2267.889       1249.0501    
   3862500   272.48191     -351.77768     -271.93156     -351.70531      0              4889.1287      46.041816      20.047001      20.857         19251.018      4707.189       5263.93        4696.2672      48.342483      311.36608      609.71087    
   3863000   260.79288     -351.34872     -274.92786     -351.23651      0              4249.6775      45.798335      20.047001      20.857         19149.213      4281.1777      5219.6732      3248.1815      1173.8365     -1042.9856      308.92658    
   3863500   259.00749     -349.55294     -273.65527     -349.55802      0              3829.7441      46.109547      20.047001      20.857         19279.337      3550.6477      3457.93        4480.6544     -236.18394      68.325524      120.15051    
   3864000   254.3237      -350.40447     -275.8793      -350.33157      0              5159.4129      46.155578      20.047001      20.857         19298.584      2632.1806      8604.5481      4241.5101      99.757923     -858.44367      342.56342    
   3864500   267.12582     -351.98276     -273.70615     -351.91263      0              4839.461       46.016097      20.047001      20.857         19240.264      5381.1069      3642.9168      5494.3591     -197.63698      1180.5825     -382.47092    
   3865000   257.12705     -348.93533     -273.58869     -348.86783      0              4600.5267      46.006731      20.047001      20.857         19236.348      5009.4855      6218.0626      2574.0321      753.24796     -264.60208     -1767.7032    
   3865500   262.75851     -350.27443     -273.27759     -350.20989      0              5872.3223      45.876076      20.047001      20.857         19181.719      5143.4896      6265.6852      6207.7922      605.2371       352.44646      453.06001    
   3866000   255.92236     -349.64462     -274.65099     -349.57464      0              6957.5015      45.902839      20.047001      20.857         19192.909      5756.4372      8685.2503      6430.8169      543.94313      883.76466     -1261.6453    
   3866500   261.35353     -351.79071     -275.20556     -351.71879      0              3754.5149      46.185273      20.047001      20.857         19311          3309.5941      3847.9109      4106.0396     -1250.6517     -629.98253      577.26195    
   3867000   263.8423      -352.61874     -275.30431     -352.54708      0              2722.9041      46.094969      20.047001      20.857         19273.242      2458.3942      3202.8509      2507.4671     -1021.8159      188.60824     -768.78104    
   3867500   259.07904     -352.92491     -277.00626     -352.82039      0              4632.1993      45.904048      20.047001      20.857         19193.414      4479.6907      4215.7746      5201.1327      48.290435      1006.7262      283.37451    
   3868000   265.20098     -352.04087     -274.3283      -351.94832      0              6479.9294      45.728318      20.047001      20.857         19119.938      4987.7947      6492.8952      7959.0985      983.79293      768.38452      68.3497      
   3868500   252.04684     -349.32183     -275.46385     -349.23308      0              2679.5729      45.946353      20.047001      20.857         19211.103      2276.0028      3885.3338      1877.3823     -815.12673     -805.02248      524.52152    
   3869000   260.05019     -352.65195     -276.44873     -352.58251      0              5800.2728      46.267101      20.047001      20.857         19345.214      8248.1349      4280.4466      4872.2369      386.11623      2463.1519     -192.71343    
   3869500   257.07557     -351.82257     -276.49101     -351.78771      0              2612.6281      46.114655      20.047001      20.857         19281.473      2485.8208      1810.7789      3541.2847      339.10568     -1689.5666      644.7468     
   3870000   257.82892     -350.72321     -275.1709      -350.64564      0              5331.7262      45.652326      20.047001      20.857         19088.164      7351.7245      4604.6553      4038.799       670.64804      1225.6185     -2191.6243    
   3870500   258.27236     -349.84505     -274.16279     -349.7585       0              3046.9586      46.028109      20.047001      20.857         19245.287      3547.7525      3355.4261      2237.6973      322.0881      -15.04121       758.2319     
   3871000   255.86741     -348.64602     -273.66849     -348.58326      0              3358.2389      46.278651      20.047001      20.857         19350.043      3579.7668      4077.5977      2417.3522     -417.44917     -144.59143     -58.072035    
   3871500   260.63325     -348.83636     -272.46228     -348.7477       0              4618.305       45.933815      20.047001      20.857         19205.861      4965.6101      3359.5161      5529.7888      46.320121      138.09216     -602.74718    
   3872000   260.54083     -347.60897     -271.26198     -347.54222      0              5315.9528      45.766999      20.047001      20.857         19136.111      5011.0157      5763.1835      5173.6593     -904.71823      2278.4249     -2174.6542    
   3872500   260.81387     -350.07013     -273.64312     -349.99507      0              4879.4875      46.035491      20.047001      20.857         19248.373      4157.6606      5634.7749      4846.027      -284.52966      2649.6257     -246.9846     
   3873000   252.09457     -350.24164     -276.36968     -350.14795      0              5708.9183      46.101864      20.047001      20.857         19276.125      5833.4678      5188.7405      6104.5464     -1425.8085     -852.95342      1127.388     
   3873500   264.01643     -350.64703     -273.28157     -350.57637      0              5228.9422      46.048554      20.047001      20.857         19253.835      6138.9146      5264.5487      4283.3635     -791.03935     -55.406027      2589.5602    
   3874000   260.56517     -352.41964     -276.06551     -352.33077      0              4029.1812      46.09474       20.047001      20.857         19273.147      3742.3237      6139.0864      2206.1334     -294.71423      949.84909      722.02524    
   3874500   253.83008     -353.00726     -278.62674     -352.942        0              5222.5106      46.010587      20.047001      20.857         19237.961      4096.8161      5054.9219      6515.7937      154.56148      2204.1185      2631.6595    
   3875000   257.78233     -353.08806     -277.5494      -353.00703      0              3600.3728      46.189922      20.047001      20.857         19312.944      3816.3874      2325.4333      4659.2979     -133.31272      874.65556     -158.23569    
   3875500   259.26101     -351.5836      -275.61163     -351.4962       0              2849.7736      46.0082        20.047001      20.857         19236.963      2549.0993      4286.5641      1713.6574      523.30207     -838.10077      874.79641    
   3876000   259.27829     -350.72207     -274.74504     -350.63371      0              6318.4725      45.655016      20.047001      20.857         19089.289      7323.7725      5395.655       6235.9899     -106.20524      1025.4483      827.88865    
   3876500   259.34156     -351.62034     -275.62477     -351.54973      0              6176.9805      45.964         20.047001      20.857         19218.481      8814.0732      4670.6923      5046.1761     -749.28121      258.0663      -155.50943    
   3877000   255.3089      -350.971       -276.15713     -350.87259      0              3408.184       46.251501      20.047001      20.857         19338.691      2756.688       1925.5595      5542.3044      1104.3361      1461.5547      86.806226    
   3877500   251.78368     -349.51291     -275.73205     -349.4277       0              5112.1371      46.028654      20.047001      20.857         19245.515      6358.3507      5685.5726      3292.4881      1623.5166      569.68734      496.67294    
   3878000   262.91156     -353.20524     -276.16355     -353.12006      0              3230.4869      46.0188        20.047001      20.857         19241.395      2170.5935      5390.5845      2130.2826      469.9888      -13.525553      134.84987    
   3878500   266.23536     -353.50229     -275.48662     -353.40894      0              3103.8354      46.300992      20.047001      20.857         19359.385      5873.9695     -141.56026      3579.097      -565.67266      452.50266      1221.1812    
   3879000   256.68621     -350.71519     -275.49773     -350.65091      0              3850.2241      46.286152      20.047001      20.857         19353.18       4396.3239      3421.0843      3733.2642      3444.7074      834.87424      409.45417    
   3879500   267.34369     -352.56688     -274.22643     -352.46629      0              4876.7845      46.056892      20.047001      20.857         19257.321      6493.994       4137.4428      3998.9167      233.94348      1913.5204     -611.57581    
   3880000   255.57234     -351.99465     -277.10359     -351.92737      0              2862.3654      46.307314      20.047001      20.857         19362.028      2607.9191      2962.1786      3016.9987      2574.7667     -1201.439       627.32237    
   3880500   258.96186     -351.30248     -275.41818     -351.22746      0              4169.9461      46.245146      20.047001      20.857         19336.034      5169.2183      4971.9576      2368.6625     -814.32388     -937.0175       104.21339    
   3881000   263.38232     -351.19464     -274.01499     -351.12558      0              4823.8986      45.72326       20.047001      20.857         19117.823      4498.2593      6073.2091      3900.2272     -276.12454      1517.4084      248.4931     
   3881500   261.22245     -351.9145      -275.36777     -351.8325       0              4153.0227      45.990945      20.047001      20.857         19229.748      6154.2931      3559.6157      2745.1594      105.39881      144.73065     -1629.8412    
   3882000   263.88223     -349.81577     -272.48964     -349.75252      0              2838.1279      46.405311      20.047001      20.857         19403.002      3511.0055      1619.1763      3384.2019      1596.6488      269.3411      -334.52042    
   3882500   261.75617     -351.26868     -274.56555     -351.19754      0              5334.4892      46.271452      20.047001      20.857         19347.033      6317.5044      6087.5769      3598.3864      148.01094     -18.263764      1030.8906    
   3883000   263.57996     -350.38813     -273.15057     -350.32158      0              3724.0161      46.233665      20.047001      20.857         19331.234      4773.8804      2438.8983      3959.2696     -333.97211     -116.18935     -1612.4114    
   3883500   262.50019     -354.36384     -277.44269     -354.26776      0              5291.7606      46.024239      20.047001      20.857         19243.669      3656.836       6271.486       5946.9599      474.85397      1017.3614      212.80865    
   3884000   260.46109     -351.12449     -274.80086     -351.06355      0              6100.1334      45.943817      20.047001      20.857         19210.043      6350.0399      4123.8763      7826.4841     -543.15214     -469.28734      1158.9717    
   3884500   256.98206     -350.9265      -275.62234     -350.86846      0              5981.6998      46.17133       20.047001      20.857         19305.17       7107.8356      6193.979       4643.2848     -128.61616     -228.93625     -1531.3176    
   3885000   259.23541     -351.90506     -275.9406      -351.84498      0              4914.7019      46.136297      20.047001      20.857         19290.522      5206.2295      5324.0816      4213.7947     -81.448685     -462.57966      873.44117    
   3885500   255.71823     -349.69099     -274.75717     -349.66988      0              2772.7718      46.005683      20.047001      20.857         19235.91       5368.6607      594.34206      2355.3126      3465.7262     -1453.578       1174.3476    
   3886000   265.10012     -352.44979     -274.76677     -352.39237      0              6058.2195      45.922013      20.047001      20.857         19200.926      8921.5444      4228.2638      5024.8502     -575.06782      544.4971       916.37924    
   3886500   261.30914     -350.17326     -273.60113     -350.11513      0              3924.5942      46.122763      20.047001      20.857         19284.863      5065.7897      3314.3802      3393.6126     -82.444847      1170.4337      548.22215    
   3887000   260.98689     -352.62492     -276.14721     -352.56728      0              2873.5382      46.323847      20.047001      20.857         19368.941      2368.795       4672.6622      1579.1572      0.7694688      119.27132      330.44436    
   3887500   265.83119     -351.33791     -273.44066     -351.27921      0              5235.6786      46.24008       20.047001      20.857         19333.916      6832.7886      4178.3449      4695.9025      1343.5528     -1260.5988      408.57486    
   3888000   253.43053     -351.57216     -277.30871     -351.51539      0              3607.1066      46.20625       20.047001      20.857         19319.771      4814.383       2453.6024      3553.3344      1537.9377      425.75202      776.48551    
   3888500   256.97133     -353.82043     -278.51941     -353.76219      0              4446.1286      46.064267      20.047001      20.857         19260.405      4026.6795      3798.7002      5513.006      -728.38839     -1630.3781     -1369.7512    
   3889000   259.17817     -351.8907      -275.94301     -351.8318       0              5667.0376      46.06159       20.047001      20.857         19259.286      7451.6517      4755.6323      4793.8288      105.01662     -612.82504     -1894.0075    
   3889500   265.54345     -350.46193     -272.64901     -350.40273      0              4715.5066      45.896628      20.047001      20.857         19190.312      4265.2137      5695.8511      4185.455       452.05918     -223.35162      42.650035    
   3890000   261.60257     -348.99634     -272.33822     -348.91662      0              3315.0436      46.218552      20.047001      20.857         19324.915      4385.1975      1132.203       4427.7303     -790.90915      460.37673      313.72349    
   3890500   254.95518     -349.55236     -274.84215     -349.49487      0              3132.138       46.361822      20.047001      20.857         19384.819      1586.3955      3525.0278      4284.9908     -443.97985      1770.7983     -1203.5895    
   3891000   257.88056     -351.38163     -275.81418     -351.28068      0              6773.2053      45.845529      20.047001      20.857         19168.946      5579.7005      9043.8358      5696.0795      508.322        1839.1417      692.69463    
   3891500   260.86016     -349.54903     -273.10846     -349.46844      0              4708.3608      45.836137      20.047001      20.857         19165.019      3788.9113      6599.2919      3736.8791     -310.80822     -1159.394       161.79247    
   3892000   254.18381     -352.79945     -278.31527     -352.73601      0              4414.2182      46.121933      20.047001      20.857         19284.517      6228.5911      3798.315       3215.7486      1052.9632      1501.3994     -61.90923     
   3892500   256.62201     -351.37912     -276.18047     -351.32191      0              5106.8013      46.419253      20.047001      20.857         19408.832      6578.9961      4095.5401      4645.8676      26.350646      789.49557     -519.71285    
   3893000   256.86035     -350.02469     -274.7562      -349.97627      0              3885.9784      46.302119      20.047001      20.857         19359.856      6212.2423      3546.8304      1898.8624     -22.099917      582.33147      830.74287    
   3893500   258.52458     -350.6806      -274.92444     -350.60466      0              6853.6101      46.059427      20.047001      20.857         19258.382      10018.423      5554.7522      4987.6547     -1588.1865      45.38123       1150.6163    
   3894000   263.83857     -352.12441     -274.81107     -352.08521      0              4188.2251      46.306232      20.047001      20.857         19361.576      4581.3952      4265.677       3717.6032     -698.06027      22.07735      -247.3036     
   3894500   262.90212     -349.47974     -272.44081     -349.42768      0              3613.0242      46.189287      20.047001      20.857         19312.679      2061.1651      5406.4832      3371.4242     -1053.6225     -1581.5635      744.98132    
   3895000   260.72887     -350.76285     -274.36075     -350.69492      0              5273.4144      46.056926      20.047001      20.857         19257.336      6804.4987      3723.0884      5292.6561     -1348.9338     -80.009849     -543.8589     
   3895500   264.18886     -353.5599      -276.14391     -353.50373      0              4156.0363      46.392059      20.047001      20.857         19397.462      4167.8784      5285.3562      3014.8743      754.16012     -467.81236      1110.008     
   3896000   253.84571     -355.00576     -280.62066     -354.9077       0              4420.4576      46.400263      20.047001      20.857         19400.892      4729.5951      3265.0206      5266.7573     -1696.9301      322.47503      811.07829    
   3896500   256.52965     -351.65704     -276.48546     -351.57958      0              6206.0851      46.286819      20.047001      20.857         19353.459      8498.9956      7400.6559      2718.6038     -297.9446      -893.02226      889.1514     
   3897000   267.17804     -353.10444     -274.81253     -353.0243       0              2764.2788      46.263262      20.047001      20.857         19343.609      2521.1307      2873.129       2898.5768     -1661.4878      517.35789      428.59663    
   3897500   263.42791     -350.17919     -272.98619     -350.12536      0              4479.3963      46.294245      20.047001      20.857         19356.564      6354.4256      4860.3362      2223.427       1366.3044      68.851723      606.54174    
   3898000   262.06639     -351.66562     -274.87159     -351.59159      0              4432.3495      46.373118      20.047001      20.857         19389.542      5639.0749      5315.4908      2342.4828      1098.9965     -1134.8251     -1047.7101    
   3898500   260.21987     -351.6745      -275.42156     -351.66454      0              4179.3904      46.307039      20.047001      20.857         19361.913      5982.94        3520.6353      3034.5959     -218.26288      768.86433     -318.98001    
   3899000   262.88847     -352.26362     -275.22869     -352.26964      0              4302.3714      46.301228      20.047001      20.857         19359.483      4215.1116      5124.8544      3567.1483     -65.24588      -225.824       -675.55943    
   3899500   264.04259     -349.90355     -272.53042     -349.85         0              5035.2387      46.087373      20.047001      20.857         19270.066      5396.4722      5563.7821      4145.4617      1565.2         1902.7848      1496.5307    
   3900000   255.49736     -348.53605     -273.66696     -348.4603       0              5208.6771      46.137216      20.047001      20.857         19290.906      6262.4511      5993.0189      3370.5614     -365.04489     -1235.0098     -541.42093    
   3900500   258.74093     -348.70104     -272.88148     -348.61385      0              4126.9525      46.435421      20.047001      20.857         19415.592      4208.8766      6034.8715      2137.1095      963.64642     -77.607687      145.77208    
   3901000   261.03221     -350.37766     -273.88667     -350.30201      0              3638.0082      46.322691      20.047001      20.857         19368.458      2997.5345      5592.5422      2323.9478      382.76694     -378.53457      416.41358    
   3901500   262.95573     -350.96239     -273.90775     -350.89352      0              4226.5859      46.278104      20.047001      20.857         19349.815      5336.1608      3355.9808      3987.616      -630.54003      1370.0144     -1131.1301    
   3902000   253.62253     -350.4459      -276.1262      -350.3622       0              2782.502       46.644143      20.047001      20.857         19502.863      2886.982       4035.7131      1424.8109      390.65262      2314.6443     -251.34241    
   3902500   260.26498     -352.43281     -276.16665     -352.33063      0              6582.4648      46.86133       20.047001      20.857         19593.673      9163.9383      4283.9608      6299.4953      1894.2467      496.51312     -502.93456    
   3903000   256.40866     -351.53468     -276.39855     -351.41628      0              5244.047       46.484673      20.047001      20.857         19436.185      4821.2272      6506.3216      4404.5922      398.33686      1762.2504     -1160.2616    
[...]
   7549500   251.62217     -352.23017     -278.49664     -352.11248      0              6723.7433      45.865582      20.047001      20.857         19177.331      7956.7456      5310.6348      6903.8496      2083.1388      1779.1806      101.4698     
   7550000   257.16189     -351.37871     -276.02186     -351.27717      0              5754.0996      45.939824      20.047001      20.857         19208.373      7043.887       5271.6801      4946.7316      33.361715      2373.8979     -374.35987    
   7550500   264.5092      -351.73007     -274.22021     -351.61573      0              5462.0093      46.160195      20.047001      20.857         19300.515      6206.7185      4496.549       5682.7602      1729.9621     -1177.8012      256.6722     
   7551000   252.57949     -351.92842     -277.91435     -351.81055      0              2537.5494      46.283393      20.047001      20.857         19352.026      4520.9125      1261.4046      1830.3312      1378.7841     -1457.2671     -1115.9839    
   7551500   255.71203     -352.36147     -277.42947     -352.24609      0              4149.9103      46.089137      20.047001      20.857         19270.804      6039.6422      2879.2166      3530.8721     -917.50119     -204.72793     -1691.3349    
   7552000   262.90714     -353.70007     -276.65967     -353.58149      0              4059.9214      45.852115      20.047001      20.857         19171.7        3905.3109      3573.6265      4700.8268      678.7242      -361.09727      959.30075    
   7552500   259.70029     -353.98601     -277.88532     -353.88675      0              1218.6909      45.905471      20.047001      20.857         19194.009      2626.7274     -970.37463      1999.7199      54.207208     -57.286165     -1297.8446    
   7553000   255.42831     -352.08708     -277.23822     -351.9717       0              4251.2204      45.84318       20.047001      20.857         19167.964      4942.897       5209.4359      2601.3282      569.38811     -910.66886     -176.7062     
   7553500   259.65539     -351.31035     -275.22282     -351.21292      0              5083.247       45.803695      20.047001      20.857         19151.455      4968.9336      5268.9393      5011.8681      127.27355      2073.5412     -152.36824    
   7554000   257.51262     -352.89299     -277.43336     -352.77501      0              2861.3077      46.251758      20.047001      20.857         19338.799      3678.1761      2893.9499      2011.797      -535.27238     -1537.2712      998.21889    
   7554500   267.1388      -352.39462     -274.1142      -352.27928      0              3197.9992      46.033932      20.047001      20.857         19247.721      3107.0046      2503.8012      3983.1918     -34.933016     -970.95871     -653.17752    
   7555000   259.07776     -352.15927     -276.24101     -352.04148      0              5321.77        45.690592      20.047001      20.857         19104.164      5523.5346      6006.7909      4434.9847     -350.4043       1215.8533      1645.1374    
   7555500   265.86185     -353.95939     -276.05316     -353.84146      0              4152.6607      45.934479      20.047001      20.857         19206.138      3553.6021      5680.6241      3223.756       1435.2198      1197.619       251.52306    
   7556000   259.34132     -352.30341     -276.30791     -352.20307      0              4003.4272      46.41097       20.047001      20.857         19405.369      4301.5943      3101.5514      4607.136       599.99676      651.49077     -636.62383    
   7556500   261.96948     -350.96108     -274.19545     -350.85784      0              4846.9266      46.194049      20.047001      20.857         19314.67       4038.0493      5925.298       4577.4325      1653.3834      1159.1454     -1215.6043    
   7557000   262.32735     -351.62625     -274.75574     -351.50796      0              4898.0593      45.869497      20.047001      20.857         19178.968      5632.8937      3718.0194      5343.2647      1154.1059     -1412.8685     -289.302      
   7557500   261.51304     -350.08417     -273.45228     -349.99091      0              3682.4981      46.131563      20.047001      20.857         19288.543      4007.1911      4471.4137      2568.8895      394.29143     -813.37265     -1391.9327    
   7558000   266.3436      -353.24361     -275.19621     -353.12969      0              5216.842       46.355281      20.047001      20.857         19382.084      3109.2212      7054.3561      5486.9487     -1281.2084      411.88896     -1979.2452    
   7558500   267.49662     -354.20333     -275.81806     -354.10523      0              4238.0977      46.173757      20.047001      20.857         19306.185      3884.7894      3780.8116      5048.692       1286.8418     -4251.9718     -1085.8893    
   7559000   258.12194     -354.21103     -278.57285     -354.11239      0              3985.311       46.01994       20.047001      20.857         19241.871      6152.3711      1143.4907      4660.0713      357.54158      1179.1594      2150.3539    
   7559500   260.91038     -352.79551     -276.34022     -352.68264      0              5820.9637      46.310224      20.047001      20.857         19363.245      6083.6761      3876.9979      7502.2172      1120.0469     -2331.9976      970.46194    
   7560000   258.94059     -351.30572     -275.42764     -351.20701      0              3656.7952      46.526889      20.047001      20.857         19453.837      4297.1648      4675.6524      1997.5684      10.792167      109.79469     -1159.6161    
   7560500   260.73553     -352.9416      -276.53755     -352.82754      0              3869.9255      46.348162      20.047001      20.857         19379.107      2959.8924      3782.5025      4867.3816     -1069.7907     -817.29424     -1067.1059    
   7561000   263.0845      -356.15049     -279.05811     -356.03368      0              4946.7349      46.212214      20.047001      20.857         19322.265      5305.2208      4790.1484      4744.8356     -1390.1537     -1386.6376     -496.24211    
   7561500   260.49637     -354.51172     -278.17775     -354.39391      0              5345.7188      46.17775       20.047001      20.857         19307.855      4096.3248      6868.7276      5072.1042      1016.532       42.105656      1198.8198    
   7562000   260.87224     -354.9811      -278.53699     -354.86272      0              4940.529       46.351885      20.047001      20.857         19380.664      2238.3667      5406.2059      7177.0144      560.10899     -2071.8496     -1651.5045    
   7562500   257.95144     -352.66045     -277.07223     -352.54995      0              4756.1005      46.31862       20.047001      20.857         19366.755      4051.605       5763.7565      4452.9401     -735.03371     -2131.5752      203.72052    
   7563000   257.64945     -353.83032     -278.33059     -353.71254      0              3331.274       46.204601      20.047001      20.857         19319.082      3796.8917      3985.525       2211.4053      88.859436     -1364.1171      2285.4134    
   7563500   262.2551      -352.4045      -275.55517     -352.30023      0              2879.6401      46.377877      20.047001      20.857         19391.532      2505.0814      2620.3014      3513.5376      1237.8057     -278.98372     -146.46298    
   7564000   260.17893     -354.64061     -278.39967     -354.52967      0              6786.9236      46.340445      20.047001      20.857         19375.881      5742.5074      9138.6184      5479.6451     -0.042804209   -345.49248      254.75151    
   7564500   260.36597     -354.92603     -278.63027     -354.81204      0              3603.3618      46.190888      20.047001      20.857         19313.348      3874.4873      3271.9874      3663.6107      1970.6502      238.66482     -933.70066    
   7565000   264.64989     -355.31479     -277.7637      -355.2135       0              5267.9854      46.169501      20.047001      20.857         19304.406      5047.706       4433.8343      6322.4158      984.62558      789.91933     -924.65787    
   7565500   255.98847     -353.75276     -278.73976     -353.63489      0              4577.9709      46.327197      20.047001      20.857         19370.342      4512.1696      4643.2263      4578.5167      944.25399     -1298.6374      508.47296    
   7566000   256.96545     -356.31846     -281.01917     -356.20034      0              4247.5565      46.357842      20.047001      20.857         19383.155      1461.3741      8769.6384      2511.6572     -350.16576     -519.63337     -720.5208     
   7566500   255.47002     -354.23274     -279.37165     -354.11502      0              5478.2679      45.696669      20.047001      20.857         19106.705      5732.9264      6745.0681      3956.8093      2270.4516     -275.4008      -1845.9534    
   7567000   265.1998      -352.57372     -274.86149     -352.45592      0              6276.6263      45.539294      20.047001      20.857         19040.903      9529.3737      3905.1215      5395.3838      127.31345      24.708171      2809.5555    
   7567500   256.57838     -352.71108     -277.52521     -352.60771      0              2540.2555      46.493207      20.047001      20.857         19439.754      3076.5346      2313.5575      2230.6744      2260.2001     -120.97647     -141.26908    
   7568000   269.96166     -353.68758     -274.57997     -353.56988      0              3203.934       46.700926      20.047001      20.857         19526.605      3547.7607      2964.1223      3099.919       228.71662     -755.96272     -803.51505    
   7568500   261.04282     -352.78287     -276.28878     -352.68508      0              4129.9954      46.359531      20.047001      20.857         19383.861      6320.6466      2704.4772      3364.8623     -623.40217      2409.4724     -330.81221    
   7569000   262.98533     -353.62537     -276.56206     -353.52613      0              3588.7725      46.256695      20.047001      20.857         19340.863      4968.9535      3910.4207      1886.9433      1300.7987      865.88034     -443.89577    
   7569500   260.43347     -351.84491     -275.52937     -351.72887      0              4542.2503      46.371765      20.047001      20.857         19388.976      6346.9366      4396.2154      2883.5989     -311.51907     -754.26074     -283.12263    
   7570000   256.80156     -352.65554     -277.40427     -352.54851      0              2148.2028      46.642432      20.047001      20.857         19502.148      3160.397       3269.3756      14.835856     -453.39513     -559.13091      840.21948    
   7570500   253.39805     -353.13368     -278.87975     -353.04669      0              3403.2767      46.547362      20.047001      20.857         19462.397      5016.0432      2098.6893      3095.0976      24.727828      237.17083     -1333.3315    
   7571000   255.61357     -354.29974     -279.3966      -354.18202      0              6021.63        46.255521      20.047001      20.857         19340.372      8248.6364      4613.2961      5202.9573     -878.4785       1252.6276      8.9574673    
   7571500   261.84016     -352.41712     -275.68938     -352.32377      0              4692.7664      46.404534      20.047001      20.857         19402.678      6061.5105      4438.1801      3578.6087     -777.94493     -119.20188     -148.59152    
   7572000   263.05049     -351.72299     -274.64058     -351.60535      0              3848.5238      46.58478       20.047001      20.857         19478.042      2232.0473      5844.7496      3468.7745      764.50144     -1105.5376     -313.62472    
   7572500   261.08678     -352.01193     -275.50495     -351.89472      0              4237.5842      46.377382      20.047001      20.857         19391.325      7005.0724      3750.602       1957.0782     -591.02078     -483.3506      -230.17569    
   7573000   262.42471     -351.78896     -274.88992     -351.68873      0              5081.6486      46.250161      20.047001      20.857         19338.131      7595.8         3304.2154      4344.9305      151.38172      2721.6324      2203.1182    
   7573500   252.54994     -354.56364     -280.55824     -354.46452      0              2576.0144      46.382045      20.047001      20.857         19393.275      4513.0121      1400.9757      1814.0554      1481.4091     -396.11229     -914.56367    
   7574000   262.44919     -351.78337     -274.87716     -351.69847      0              1940.3009      46.593485      20.047001      20.857         19481.682      2556.8852      1003.3125      2260.7051      522.21538      1312.1142      416.87006    
   7574500   258.03427     -352.71164     -277.09915     -352.61089      0              3791.1143      46.571105      20.047001      20.857         19472.324      6484.5834      2124.3116      2764.4479     -150.22255      446.40982     -435.23213    
   7575000   259.47583     -353.75276     -277.71784     -353.65438      0              5969.2332      46.230353      20.047001      20.857         19329.849      9204.7548      5405.9026      3297.0423      370.24268     -482.28781      634.59723    
   7575500   261.73383     -352.92154     -276.22496     -352.82253      0              3544.4283      46.400652      20.047001      20.857         19401.054      6044.5092      2543.2187      2045.557      -426.92087     -303.14499      251.79209    
   7576000   256.46089     -351.61746     -276.46602     -351.52822      0              5867.079       46.606118      20.047001      20.857         19486.964      5336.9162      5492.6446      6771.6763     -246.38928     -1140.9369     -1490.3647    
   7576500   257.87254     -354.18096     -278.61586     -354.08147      0              3552.2394      46.544464      20.047001      20.857         19461.185      5709.5596      1752.6551      3194.5034      613.05844     -351.18561     -132.47945    
   7577000   258.97012     -351.85781     -275.97108     -351.75241      0              4355.4184      46.440726      20.047001      20.857         19417.81       6790.3312      2122.8677      4153.0564      1211.8909     -1193.0188     -130.66278    
   7577500   261.66688     -352.91466     -276.2377      -352.79729      0              4054.0735      46.403985      20.047001      20.857         19402.448      4827.7489      3599.3847      3735.0871     -118.548        56.21615       613.09417    
   7578000   256.6008      -352.60095     -277.40851     -352.51997      0              4799.1913      46.375057      20.047001      20.857         19390.353      3619.2248      6490.0925      4288.2565     -325.27682      956.1025       577.27196    
   7578500   261.71063     -350.93501     -274.24522     -350.85812      0              4042.9106      46.447969      20.047001      20.857         19420.839      5286.8225      3026.7915      3815.1178      631.77317     -889.74549      1219.9534    
   7579000   265.1777      -354.57133     -276.86558     -354.4662       0              4021.05        46.194626      20.047001      20.857         19314.911      3356.6129      4750.6805      3955.8566      724.48867     -399.51371      221.39434    
   7579500   261.56998     -353.79086     -277.14229     -353.71039      0              2962.0061      46.180495      20.047001      20.857         19309.002      1805.7662      4626.3249      2453.9273      274.58621      514.30939     -1706.1984    
   7580000   265.51701     -351.40359     -273.59841     -351.30101      0              3478.986       46.219721      20.047001      20.857         19325.403      4052.2424      3900.1841      2484.5316     -565.81489      649.46656      405.73198    
   7580500   259.47521     -351.12981     -275.09508     -351.01227      0              3701.8667      46.257566      20.047001      20.857         19341.227      2280.7082      3922.4599      4902.4319     -1041.5356      1726.1598      509.13205    
   7581000   259.98839     -352.28301     -276.0979      -352.1764       0              4463.2875      45.984723      20.047001      20.857         19227.146      6607.5785      3724.7146      3057.5695     -363.64226      512.92508     -277.67612    
   7581500   261.13772     -352.95909     -276.43719     -352.87636      0              3654.9127      45.932701      20.047001      20.857         19205.395      4305.4635      3165.7778      3493.497       2161.433       277.80906     -255.0614     
   7582000   262.44674     -352.40706     -275.50157     -352.28939      0              3042.8056      46.121479      20.047001      20.857         19284.327      3437.837       2695.3967      2995.183       288.76696      850.38451     -1416.8052    
   7582500   263.62379     -353.61035     -276.35994     -353.49337      0              2766.587       46.317175      20.047001      20.857         19366.151      4867.8493      1519.7677      1912.1441      364.09292     -1025.6647      214.97995    
   7583000   257.53095     -352.70255     -277.23755     -352.60162      0              5421.1944      46.279362      20.047001      20.857         19350.341      7415.3109      4610.6489      4237.6233      211.15274      399.99204     -1096.6441    
   7583500   256.28445     -355.22763     -280.12789     -355.11058      0              5767.8764      46.235864      20.047001      20.857         19332.153      6287.2198      4527.4676      6488.9417      809.96366      208.25117      2857.6606    
   7584000   263.05219     -353.97928     -276.89637     -353.86188      0              2298.9152      46.218896      20.047001      20.857         19325.058      2442.4042      3896.9226      557.41889      205.39727     -861.2832      -1549.8237    
   7584500   256.97878     -354.08302     -278.77982     -353.96699      0              4381.63        46.273345      20.047001      20.857         19347.825      5397.1759      4228.3988      3519.3153      1268.4925      818.51638      1266.2916    
   7585000   258.68062     -352.39812     -276.59623     -352.31313      0              5372.7519      46.43449       20.047001      20.857         19415.203      5539.9715      5027.4097      5550.8745      89.417133      1419.1103     -85.613271    
WARNING: Wall time limit reached (../timer.cpp:193)
Loop time of 85810.7 on 4 procs for 3828000 steps with 2268 atoms

Performance: 1.927 ns/day, 12.454 hours/ns, 44.610 timesteps/s
972.6% CPU use with 4 MPI tasks x no OpenMP threads

MPI task timing breakdown:
Section |  min time  |  avg time  |  max time  |%varavg| %total
---------------------------------------------------------------
Pair    | 48327      | 48500      | 48782      |  77.1 | 56.52
Bond    | 0.44908    | 0.46699    | 0.48441    |   2.2 |  0.00
Neigh   | 1248.3     | 1267.5     | 1282.4     |  34.5 |  1.48
Comm    | 4806.5     | 5047.6     | 5146.9     | 196.6 |  5.88
Output  | 950.44     | 950.46     | 950.51     |   0.1 |  1.11
Modify  | 29978      | 30034      | 30134      |  34.3 | 35.00
Other   |            | 11.03      |            |       |  0.01

Nlocal:            567 ave         581 max         552 min
Histogram: 1 1 0 0 0 0 0 0 0 2
Nghost:         3722.5 ave        3752 max        3692 min
Histogram: 1 0 1 0 0 0 0 0 1 1
Neighs:              0 ave           0 max           0 min
Histogram: 4 0 0 0 0 0 0 0 0 0
FullNghs:       141916 ave      145816 max      137771 min
Histogram: 1 0 1 0 0 0 0 0 1 1

Total # of neighbors = 567664
Ave neighs/atom = 250.29277
Ave special neighs/atom = 0
Neighbor list builds = 382800
Dangerous builds not checked

unfix		4
unfix		3
unfix		1

write_data	data.final.${pid}
write_data	data.final.0
System init for write_data ...
Generated 0 of 1 mixed pair_coeff terms from geometric mixing rule
write_restart	restart.lmp.${pid}
write_restart	restart.lmp.0
System init for write_restart ...
Generated 0 of 1 mixed pair_coeff terms from geometric mixing rule
Total wall time: 23:50:27
