LAMMPS (23 Jun 2022)
echo both

include		in.partitions
variable        pid world 0
include		in.temp
variable	temperature equal 260.0
variable        tempDamp equal 0.100 # this is 0.1 ps
include		in.pressure
variable        pressure equal 5066.25
variable        pressureDamp equal 1.0 #this is 1ps
include		in.seed
variable        seed world 745823

units           metal
atom_style	full
read_restart	restart.lmp.${pid}
read_restart	restart.lmp.0
Reading restart file ...
  restart file = 23 Jun 2022, LAMMPS = 23 Jun 2022
  restoring atom style full from restart
  orthogonal box = (0.44846121 0 0) to (47.002238 20.047001 20.857)
  4 by 1 by 1 MPI processor grid
Summary of lammps deepmd module ...
  >>> Info of deepmd-kit:
  installed to:       /u/sigbjobo/software/DEEPMD_FROM_SOURCE/deepmd-kit/install
  source:             v2.1.3
  source branch:       master
  source commit:      5a32c49
  source commit at:   2022-07-01 09:52:58 +0800
  surpport model ver.:1.1 
  build float prec:   double
  build with tf inc:  /u/sigbjobo/software/DEEPMD_FROM_SOURCE/tensorflow/install/include;/u/sigbjobo/software/DEEPMD_FROM_SOURCE/tensorflow/install/include
  build with tf lib:  /u/sigbjobo/software/DEEPMD_FROM_SOURCE/tensorflow/install/lib/libtensorflow_cc.so;/u/sigbjobo/software/DEEPMD_FROM_SOURCE/tensorflow/install/lib/libtensorflow_framework.so
  set tf intra_op_parallelism_threads: 0
  set tf inter_op_parallelism_threads: 0
  >>> Info of lammps module:
  use deepmd-kit at:  /u/sigbjobo/software/DEEPMD_FROM_SOURCE/deepmd-kit/install
  source:             v2.1.3
  source branch:      master
  source commit:      5a32c49
  source commit at:   2022-07-01 09:52:58 +0800
  build float prec:   double
  build with tf inc:  /u/sigbjobo/software/DEEPMD_FROM_SOURCE/tensorflow/install/include;/u/sigbjobo/software/DEEPMD_FROM_SOURCE/tensorflow/install/include
  build with tf lib:  /u/sigbjobo/software/DEEPMD_FROM_SOURCE/tensorflow/install/lib/libtensorflow_cc.so;/u/sigbjobo/software/DEEPMD_FROM_SOURCE/tensorflow/install/lib/libtensorflow_framework.so
  restoring pair style deepmd from restart
  2268 atoms
Finding 1-2 1-3 1-4 neighbors ...
  special bond factors lj:    0        0        0       
  special bond factors coul:  0        0        0       
     0 = max # of 1-2 neighbors
     0 = max # of 1-3 neighbors
     0 = max # of 1-4 neighbors
     1 = max # of special neighbors
  special bonds CPU = 0.000 seconds
  read_restart CPU = 0.005 seconds
include 	in.setup
variable	out_freq equal 500
variable	out_freq2 equal 1000
variable	out_freq3 equal 5000

timestep        0.0005

neigh_modify    delay 7 every 1

include         in.deepmd
# This is deepMD model

# create groups ###
#group ox type 2
#group hy type 1

mass 2 15.999
mass 1 1.008

pair_style      deepmd ../graph.pb
pair_coeff      * *

bond_style      none
angle_style     none
dihedral_style  none
improper_style  none
neigh_modify exclude none


neighbor        2.0 bin
neigh_modify    every 10 delay 0 check no

thermo          ${out_freq}
thermo          500
thermo_style 	custom step temp pe etotal epair emol press lx ly lz vol pxx pyy pzz pxy pxz pyz
#thermo_modify	flush yes
restart 	${out_freq} restart.lmp.${pid} restart2.lmp.${pid}
restart 	500 restart.lmp.${pid} restart2.lmp.${pid}
restart 	500 restart.lmp.0 restart2.lmp.${pid}
restart 	500 restart.lmp.0 restart2.lmp.0

include		in.dump
dump            myDump all atom ${out_freq3} dump.water.${pid}
dump            myDump all atom 5000 dump.water.${pid}
dump            myDump all atom 5000 dump.water.0
dump            myDump2 all dcd ${out_freq2} dump.dcd.${pid}
dump            myDump2 all dcd 1000 dump.dcd.${pid}
dump            myDump2 all dcd 1000 dump.dcd.0
dump_modify     myDump append yes
dump_modify     myDump2 append yes


timer           timeout 23:50:00 every 1000
New timer settings: style=normal  mode=nosync  timeout=23:50:00

fix             1 all plumed plumedfile plumed.dat outfile plumed.out
fix             3 all nph x ${pressure} ${pressure} ${pressureDamp}
fix             3 all nph x 5066.25 ${pressure} ${pressureDamp}
fix             3 all nph x 5066.25 5066.25 ${pressureDamp}
fix             3 all nph x 5066.25 5066.25 1
Resetting global fix info from restart file:
  fix style: nph, fix ID: 3
fix             4 all temp/csvr ${temperature} ${temperature} ${tempDamp} ${seed}
fix             4 all temp/csvr 260 ${temperature} ${tempDamp} ${seed}
fix             4 all temp/csvr 260 260 ${tempDamp} ${seed}
fix             4 all temp/csvr 260 260 0.1 ${seed}
fix             4 all temp/csvr 260 260 0.1 745823
Resetting global fix info from restart file:
  fix style: temp/csvr, fix ID: 4

run             40000000 upto

CITE-CITE-CITE-CITE-CITE-CITE-CITE-CITE-CITE-CITE-CITE-CITE-CITE

Your simulation uses code contributions which should be cited:

- USER-DEEPMD package:

@article{Wang_ComputPhysCommun_2018_v228_p178,
  author = {Wang, Han and Zhang, Linfeng and Han, Jiequn and E, Weinan},
  doi = {10.1016/j.cpc.2018.03.016},
  url = {https://doi.org/10.1016/j.cpc.2018.03.016},
  year = 2018,
  month = {jul},
  publisher = {Elsevier {BV}},
  volume = 228,
  journal = {Comput. Phys. Commun.},
  title = {{DeePMD-kit: A deep learning package for many-body potential energy representation and molecular dynamics}},
  pages = {178--184}
}

CITE-CITE-CITE-CITE-CITE-CITE-CITE-CITE-CITE-CITE-CITE-CITE-CITE

Generated 0 of 1 mixed pair_coeff terms from geometric mixing rule
All restart file global fix info was re-assigned
Neighbor list info ...
  update every 10 steps, delay 0 steps, check no
  max neighbors/atom: 2000, page size: 100000
  master list distance cutoff = 8
  ghost atom cutoff = 8
  binsize = 4, bins = 12 6 6
  1 neighbor lists, perpetual/occasional/extra = 1 0 0
  (1) pair deepmd, perpetual
      attributes: full, newton on
      pair build: full/bin
      stencil: full/bin/3d
      bin: standard
Per MPI rank memory allocation (min/avg/max) = 6.184 | 6.187 | 6.191 Mbytes
   Step          Temp          PotEng         TotEng         E_pair         E_mol          Press            Lx             Ly             Lz           Volume          Pxx            Pyy            Pzz            Pxy            Pxz            Pyz      
  25558000   256.51634     -354.94187     -279.77418     -354.94187      0              3753.9499      46.553777      20.047001      20.857         19465.079      4842.9328      3407.0999      3011.8169      1459.5275      427.86291     -4.6257129    
  25558500   258.54516     -356.24115     -280.47895     -356.14778      0              4395.3638      46.236699      20.047001      20.857         19332.502      2196.5268      5993.6889      4995.8756      1526.1664     -874.11163      809.89727    
  25559000   261.43986     -354.16912     -277.55868     -354.07341      0              4967.9389      45.883219      20.047001      20.857         19184.705      4563.8706      6077.13        4262.8161     -1225.6767      247.09084     -52.453795    
  25559500   257.51698     -354.18466     -278.72376     -354.08422      0              4868.876       46.144818      20.047001      20.857         19294.085      5053.9873      5301.5609      4251.0799     -573.46994     -1564.9307      800.3143     
  25560000   259.14404     -354.37107     -278.43338     -354.27747      0              4013.6589      46.340314      20.047001      20.857         19375.826      5209.6369      3770.8309      3060.5089     -310.44927      2347.523       560.55176    
  25560500   248.59964     -353.60977     -280.76194     -353.5173       0              3832.8639      46.384676      20.047001      20.857         19394.375      1875.2242      3221.591       6401.7765      92.489555     -440.31414      137.17256    
  25561000   263.89721     -353.29034     -275.95982     -353.19559      0              4413.8506      46.202188      20.047001      20.857         19318.073      5225.4078      2502.2389      5513.9052     -2192.5456     -1346.5197      235.67001    
  25561500   256.93035     -351.56851     -276.27951     -351.46906      0              7080.2082      45.908937      20.047001      20.857         19195.459      6178.2833      7237.8406      7824.5008      561.79011     -4.5184916      1100.9479    
  25562000   259.19097     -354.16669     -278.21524     -354.07502      0              4991.4766      45.983817      20.047001      20.857         19226.767      6441.9362      5468.6959      3063.7977     -190.22058     -39.478443     -2163.9604    
  25562500   271.14413     -352.908       -273.45389     -352.8142       0              5713.4124      46.296191      20.047001      20.857         19357.377      4671.592       6067.0768      6401.5685     -558.72164      196.3082       385.64643    
  25563000   266.51642     -353.93476     -275.83672     -353.84287      0              4679.1473      46.393073      20.047001      20.857         19397.885      6092.0415      3703.9439      4241.4565     -477.41304      1293.6007     -503.56483    
  25563500   268.91809     -350.16382     -271.36201     -350.08048      0              5568.4177      45.980219      20.047001      20.857         19225.263      5319.5389      7281.1854      4104.5289      38.754568     -682.33092     -60.751772    
  25564000   261.63494     -353.03427     -276.36666     -352.94305      0              4973.1343      46.022025      20.047001      20.857         19242.743      3188.1599      6663.0093      5068.2338     -618.63989      507.51624      1665.6939    
  25564500   254.60677     -352.8264      -278.21828     -352.74477      0              4733.0785      46.351285      20.047001      20.857         19380.413      5284.0577      5260.2101      3654.9678     -1127.8122     -2006.8271     -1483.3841    
  25565000   260.79365     -353.3231      -276.90202     -353.23734      0              5173.0718      46.331169      20.047001      20.857         19372.002      8207.3823      3094.1391      4217.6942     -382.72021      2096.9868     -564.73901    
  25565500   255.41059     -353.28329     -278.43962     -353.18973      0              5948.2319      45.915765      20.047001      20.857         19198.313      5156.1472      7875.0327      4813.5158      816.10308      393.65935      683.08796    
  25566000   256.87886     -352.45221     -277.17829     -352.35646      0              2345.781       46.011673      20.047001      20.857         19238.414      4006.8479      2170.9139      859.58132     -1517.2008     -492.49207     -979.8878     
  25566500   259.36591     -353.83011     -277.82741     -353.73053      0              6005.8994      46.318747      20.047001      20.857         19366.808      4647.5413      6874.5301      6495.627      -415.24509     -321.56229      515.8278     
  25567000   261.97008     -354.9389      -278.17308     -354.83943      0              3856.0218      45.986424      20.047001      20.857         19227.857      3811.0086      5400.5304      2356.5264      380.87189      2403.1043      687.21383    
  25567500   257.82931     -353.08368     -277.53124     -352.98661      0              5615.7153      45.897791      20.047001      20.857         19190.798      5455.6401      5516.5604      5874.9454     -500.88911      490.99363      323.74459    
  25568000   263.46686     -353.09315     -275.88873     -353.00841      0              5277.2255      46.177576      20.047001      20.857         19307.782      4384.246       6164.343       5283.0874     -100.63571     -1112.3033     -1583.6485    
  25568500   268.16828     -352.77604     -274.19396     -352.6794       0              3652.7772      46.32714       20.047001      20.857         19370.318      4317.2226      4054.4889      2586.6202      446.46474      1860.7012     -320.74165    
  25569000   264.9583      -352.98685     -275.34539     -352.89452      0              4695.3486      46.26244       20.047001      20.857         19343.265      5834.1988      4245.5904      4006.2565      367.03132      76.382124      1657.7015    
  25569500   257.3697      -353.05067     -277.63292     -352.9531       0              4941.8093      46.227853      20.047001      20.857         19328.804      6804.9036      6198.2653      1822.2589      9.6765698      517.18645      99.264353    
  25570000   258.87691     -353.48272     -277.62331     -353.38471      0              3148.1877      46.29989       20.047001      20.857         19358.924      5251.6555      3789.1339      403.77365     -1041.0924      23.046144      904.51299    
  25570500   254.19432     -351.34437     -276.85711     -351.28229      0              5558.8202      46.301397      20.047001      20.857         19359.554      8215.4031      3260.161       5200.8966      619.21447     -634.12865     -891.49209    
  25571000   266.25914     -351.81009     -273.78744     -351.74876      0              5970.2788      46.392241      20.047001      20.857         19397.538      5831.2691      6243.6995      5835.8676     -822.19028     -865.81765     -29.158511    
  25571500   260.58405     -354.37564     -278.01598     -354.28302      0              6658.8915      46.107132      20.047001      20.857         19278.328      7811.7887      5316.6445      6848.2411      301.93508     -95.161481     -125.92837    
  25572000   267.38903     -354.77349     -276.41975     -354.6798       0              5124.0582      45.721139      20.047001      20.857         19116.936      6670.2647      4324.528       4377.382       319.28373      221.91913     -1920.5186    
  25572500   259.51854     -352.03851     -275.99108     -351.96655      0              4743.3391      45.951127      20.047001      20.857         19213.099      5208.9985      5358.9847      3662.0341     -1155.4507     -762.47411     -1305.6163    
  25573000   252.41341     -352.49561     -278.53021     -352.39776      0              3942.0156      46.164757      20.047001      20.857         19302.422      2958.8076      4602.3471      4264.892       347.11482      140.74946     -1399.6085    
  25573500   259.66552     -351.83105     -275.74055     -351.74562      0              5251.9214      45.979762      20.047001      20.857         19225.072      7086.5895      5185.707       3483.4677      425.28044     -188.32601      1808.5106    
  25574000   251.31652     -350.8331      -277.18913     -350.76588      0              6549.8453      46.10194       20.047001      20.857         19276.157      7068.8406      6374.0065      6206.6887     -145.46457      2904.4656      951.49276    
  25574500   254.98847     -351.76894     -277.04897     -351.68364      0              4107.9912      46.307053      20.047001      20.857         19361.919      3700.3445      3905.8564      4717.7727     -17.626339     -1625.1902     -317.55332    
  25575000   258.54161     -350.02469     -274.26353     -349.94233      0              4299.8663      46.405755      20.047001      20.857         19403.188      4712.8329      5177.1659      3009.6001      323.17559      866.90149      207.09824    
  25575500   262.78381     -352.26169     -275.25743     -352.16533      0              5342.725       45.820007      20.047001      20.857         19158.275      5797.7077      3531.3986      6699.0685     -1503.9128      70.779332     -1269.6125    
  25576000   259.81199     -352.23536     -276.10194     -352.15581      0              5326.0696      45.461077      20.047001      20.857         19008.199      5212.9803      6281.4949      4483.7336      461.05207      2019.6444     -877.73776    
  25576500   255.80257     -352.69971     -277.74118     -352.60912      0              5458.4532      45.979053      20.047001      20.857         19224.775      5017.8619      6142.3776      5215.1202     -638.20504     -266.88146     -329.10469    
  25577000   251.70818     -351.06198     -277.30324     -350.9657       0              5434.7137      45.973995      20.047001      20.857         19222.661      5563.3025      4552.8867      6187.9519      305.52693     -929.4389       539.56191    
  25577500   259.86707     -351.63167     -275.48211     -351.53539      0              3363.3534      45.936486      20.047001      20.857         19206.977      6371.756       583.90603      3134.3982      915.2743       1271.3541      54.052844    
  25578000   258.92148     -354.53864     -278.66617     -354.44692      0              4787.1417      46.005096      20.047001      20.857         19235.665      6741.4448      3516.6086      4103.3716     -62.41422       142.71147     -648.64549    
  25578500   267.71496     -353.51216     -275.06291     -353.44352      0              4521.401       45.91217       20.047001      20.857         19196.81       3966.6622      7832.2245      1765.3163     -384.55632      1071.2236      978.28396    
  25579000   259.25861     -353.5551      -277.58384     -353.47993      0              5759.3567      45.858025      20.047001      20.857         19174.171      5329.4128      3587.8857      8360.7718      455.85603      2525.5479      523.87963    
  25579500   260.45127     -354.92941     -278.60866     -354.84089      0              4777.7366      45.961797      20.047001      20.857         19217.56       4897.6537      5575.9697      3859.5864     -795.68734      48.08239       565.9144     
  25580000   259.11055     -353.22472     -277.29684     -353.12513      0              3994.1055      46.17029       20.047001      20.857         19304.736      1806.7297      4402.0548      5773.532      -725.89737      938.08439     -305.76457    
  25580500   259.64546     -353.7629      -277.67828     -353.66448      0              3931.1285      46.162471      20.047001      20.857         19301.466      5822.1935      4741.3258      1229.866      -756.95146     -957.62533      80.547241    
  25581000   257.89777     -352.70735     -277.13486     -352.60691      0              6303.408       46.00366       20.047001      20.857         19235.064      6996.8319      5301.2952      6612.097       27.779499     -497.83824      70.773861    
  25581500   252.00251     -354.75114     -280.90615     -354.65499      0              4287.8553      46.016279      20.047001      20.857         19240.34       4920.395       4424.7468      3518.4241     -157.46282      484.07168      3185.8345    
  25582000   254.84492     -354.21502     -279.53711     -354.11607      0              3608.7865      46.117988      20.047001      20.857         19282.867      1581.4863      5636.3091      3608.5642      456.20724      1715.1815      310.10082    
  25582500   253.82922     -352.62598     -278.24571     -352.52913      0              7511.9872      46.219377      20.047001      20.857         19325.26       9239.203       5563.4223      7733.3364      561.91395      2277.0582     -1281.0364    
  25583000   262.8249      -352.48021     -275.46391     -352.40145      0              4287.5216      46.512382      20.047001      20.857         19447.771      3371.9306      5168.8537      4321.7804      325.9354      -486.90723      218.87185    
  25583500   256.34087     -354.78735     -279.67108     -354.69785      0              5967.8011      46.495369      20.047001      20.857         19440.658      5335.8033      6139.1834      6428.4165      1279.8913      582.81498     -742.07606    
  25584000   264.47324     -356.82719     -279.32787     -356.74019      0              5162.7195      45.977342      20.047001      20.857         19224.06       5224.9491      6328.5368      3934.6725     -809.55889      1069.1671      253.79616    
  25584500   263.07265     -354.91107     -277.82217     -354.81287      0              3802.8605      46.054967      20.047001      20.857         19256.516      3743.7958      5875.4281      1789.3575     -622.26158      90.670357      539.59225    
  25585000   255.86987     -353.85353     -278.87528     -353.75591      0              7082.9559      46.451745      20.047001      20.857         19422.417      5817.8165      9175.857       6255.1944     -412.02072      1340.6221     -1286.4878    
  25585500   258.95806     -352.93976     -277.05656     -352.85091      0              5036.6092      46.419459      20.047001      20.857         19408.918      5231.8238      5046.4582      4831.5457      536.93261      876.29939      348.69847    
  25586000   260.0006      -354.7129      -278.52421     -354.61424      0              4445.2847      46.369774      20.047001      20.857         19388.144      5743.6384      5266.4147      2325.801       1832.2694      754.39251      213.77868    
  25586500   255.04177     -354.38535     -279.64976     -354.28749      0              5077.3744      46.138156      20.047001      20.857         19291.3        4764.9607      5000.9023      5466.2602      134.70808      1603.7051     -82.483602    
  25587000   252.88695     -353.43426     -279.3301      -353.3374       0              4371.7387      46.095776      20.047001      20.857         19273.58       5045.9115      4690.481       3378.8237      6.5687168      28.757959      687.39375    
  25587500   264.15592     -353.88657     -276.48023     -353.79         0              3371.6901      46.360324      20.047001      20.857         19384.193      1510.9478      4893.2623      3710.8601      660.97867     -446.57172     -1493.6948    
  25588000   257.21222     -354.59316     -279.22156     -354.50763      0              4998.7965      46.555542      20.047001      20.857         19465.817      6312.4408      5689.9489      2993.9998     -374.59596      731.84772     -161.92908    
  25588500   260.7146      -351.70908     -275.31117     -351.61339      0              3908.5616      46.286865      20.047001      20.857         19353.478      4753.7949      3127.6223      3844.2677     -223.82199     -1758.3378      742.23679    
  25589000   264.44278     -354.944       -277.4536      -354.84509      0              4162.4189      46.182655      20.047001      20.857         19309.906      3724.7516      5452.784       3309.7211      790.50671     -1616.9244     -2042.6368    
  25589500   256.36017     -352.41355     -277.29162     -352.31861      0              4622.2282      46.570103      20.047001      20.857         19471.905      6016.3875      5772.1551      2078.1418     -1083.2345     -3477.4531      70.289167    
  25590000   261.39394     -353.21531     -276.61833     -353.1149       0              4598.4806      46.771053      20.047001      20.857         19555.927      4649.9312      5057.895       4087.6156      5.8059915     -823.23628     -403.35368    
  25590500   265.139       -352.85595     -275.16155     -352.7676       0              6618.9412      46.188043      20.047001      20.857         19312.158      9333.3609      5595.7814      4927.6812      157.26818     -197.94853      493.03668    
  25591000   262.92295     -351.90573     -274.86069     -351.80623      0              5700.5732      45.843066      20.047001      20.857         19167.916      7144.4387      5680.0192      4277.2615      972.63729      892.864        179.14374    
  25591500   262.55633     -354.08519     -277.14759     -353.99167      0              6605.4742      46.169662      20.047001      20.857         19304.473      7116.1092      6059.7994      6640.5141     -734.98822      589.42655      1412.6342    
  25592000   262.40595     -355.42977     -278.53624     -355.3295       0              3851.8183      46.397276      20.047001      20.857         19399.643      4624.0984      5447.1255      1484.231       941.90048     -131.89795     -1707.9737    
  25592500   263.77641     -356.75207     -279.45695     -356.65192      0              4944.3487      46.124874      20.047001      20.857         19285.746      5791.6603      4125.1719      4916.2139     -611.41561     -1375.7433     -1235.0451    
  25593000   258.50828     -355.2686      -279.51721     -355.17319      0              3801.3578      46.010582      20.047001      20.857         19237.958      4973.2896      1519.4135      4911.3704      953.24382      1970.503      -139.04868    
  25593500   263.73654     -358.01532     -280.73187     -357.92252      0              3688.8973      46.013778      20.047001      20.857         19239.295      3565.1785      5864.5105      1637.0029      170.20359     -1025.6383     -791.19434    
  25594000   264.13955     -355.45223     -278.05069     -355.36927      0              5815.1484      46.271484      20.047001      20.857         19347.047      5081.3025      7464.0918      4900.051       131.69454      1178.2268      1085.8338    
  25594500   262.27727     -354.9725      -278.11667     -354.89162      0              3169.8399      46.55059       20.047001      20.857         19463.747      1678.5681      3243.2222      4587.7296     -794.49423     -914.37426     -457.05181    
  25595000   257.65071     -353.89515     -278.39505     -353.81406      0              5382.6183      46.317151      20.047001      20.857         19366.141      6522.0297      5258.8788      4366.9466     -1215.0863      6.2413563      304.99922    
  25595500   260.90888     -350.67207     -274.21722     -350.59522      0              3980.1621      46.227813      20.047001      20.857         19328.787      4444.9638      2513.9521      4981.5705     -776.08261      366.34824     -187.06643    
  25596000   261.41664     -352.37052     -275.76689     -352.32136      0              5052.9853      46.407028      20.047001      20.857         19403.72       5709.0996      5095.4626      4354.3938     -179.52655      888.78823     -1109.2754    
  25596500   259.77185     -353.82156     -277.6999      -353.7519       0              4012.8914      46.614925      20.047001      20.857         19490.646      4149.1171      4213.9891      3675.568       295.76462     -1064.495      -1602.6498    
  25597000   254.36498     -350.41645     -275.87918     -350.32857      0              3929.272       46.291623      20.047001      20.857         19355.467      4499.9302      4117.0228      3170.8628     -230.37451     -130.85052     -1701.8581    
  25597500   260.11975     -354.16418     -277.94057     -354.06858      0              3919.4498      46.22101       20.047001      20.857         19325.942      5206.9632      1762.9464      4788.4398     -605.88191     -1743.2625     -1231.7764    
  25598000   263.84115     -352.86619     -275.5521      -352.77137      0              3636.5346      46.402399      20.047001      20.857         19401.785      3053.8742      3392.6102      4463.1193     -138.31182     -357.17038     -552.39213    
  25598500   256.46192     -352.50681     -277.35507     -352.41988      0              3479.8042      46.485415      20.047001      20.857         19436.495      1978.7457      3835.5776      4625.0893     -231.98631      248.543       -294.80229    
  25599000   270.79017     -355.62721     -276.27682     -355.52692      0              5681.1193      46.10546       20.047001      20.857         19277.629      6354.7189      5163.1889      5525.45       -106.54783     -838.17598     -144.25331    
  25599500   260.69153     -354.74605     -278.35489     -354.64591      0              7073.4566      45.82975       20.047001      20.857         19162.349      7233.1068      8815.2281      5172.0348      584.04269     -139.73753      446.12399    
  25600000   260.32907     -354.9877      -278.70276     -354.89513      0              4654.5285      46.017032      20.047001      20.857         19240.655      5632.1034      4207.9641      4123.5181      1643.0065      1233.3074     -440.91922    
  25600500   256.26315     -354.44671     -279.35321     -354.3797       0              5690.6908      46.286454      20.047001      20.857         19353.306      5280.1682      7136.4327      4655.4715     -888.4506      -1782.6454     -1304.6166    
  25601000   260.39139     -356.4167      -280.1135      -356.32867      0              5994.8725      46.291613      20.047001      20.857         19355.463      6216.1165      6107.0173      5661.4838      2041.1726     -162.05934     -717.83405    
  25601500   254.37267     -351.90749     -277.36797     -351.80753      0              4344.938       46.261002      20.047001      20.857         19342.664      4432.1787      3737.2252      4865.41        533.5539      -1217.2272      21.469423    
  25602000   255.26477     -352.92232     -278.12139     -352.82646      0              4718.4521      46.484686      20.047001      20.857         19436.191      5155.9437      5335.7463      3663.6663     -3.9084927      1307.2773      562.0934     
  25602500   260.93746     -356.2467      -279.78348     -356.16655      0              4502.9155      46.361969      20.047001      20.857         19384.881      3834.5355      4590.695       5083.516       482.27182     -201.67517      213.26723    
  25603000   258.85382     -355.25745     -279.40481     -355.16182      0              4054.3332      46.405912      20.047001      20.857         19403.254      3266.8157      4405.8535      4490.3306     -845.54241      360.59099     -778.3826     
  25603500   254.71414     -352.40984     -277.77026     -352.31162      0              5610.3331      46.422742      20.047001      20.857         19410.291      4921.7073      5727.9769      6181.3149      784.32215     -1184.2121      530.77431    
  25604000   263.7462      -353.22477     -275.9385      -353.13803      0              5178.2165      46.399956      20.047001      20.857         19400.764      6764.0429      3883.939       4886.6675      623.17781      990.36006      1117.0998    
  25604500   257.52177     -354.08563     -278.62332     -353.98846      0              3598.749       46.410877      20.047001      20.857         19405.33       3575.2436      4857.4082      2363.5952      1195.0385     -1062.1228      334.86294    
  25605000   257.65267     -352.60358     -277.10291     -352.50376      0              4366.0608      46.29209       20.047001      20.857         19355.663      3541.4139      5925.4925      3631.276       343.55912      1575.2645      1733.6109    
  25605500   254.06578     -351.92087     -277.47127     -351.82226      0              4440.8283      46.26038       20.047001      20.857         19342.404      4927.9204      4429.3101      3965.2543      299.01198     -993.70861     -1401.0718    
  25606000   262.4348      -355.06733     -278.16534     -354.96926      0              6332.6511      46.160984      20.047001      20.857         19300.844      7227.1281      4884.1832      6886.642       1399.9062      1443.3335     -1682.8777    
  25606500   265.5274      -353.85434     -276.04611     -353.7565       0              4246.1897      46.148256      20.047001      20.857         19295.523      6671.7272      4420.3241      1646.5178     -426.31055      1165.4924      410.67918    
  25607000   253.7827      -354.45339     -280.08675     -354.35403      0              3576.3583      46.497065      20.047001      20.857         19441.367      5326.6824      3055.2383      2347.1543      5.4812375      399.29055      2006.7371    
  25607500   265.05253     -355.56956     -277.90049     -355.4716       0              6156.3345      46.563687      20.047001      20.857         19469.223      7501.8842      4215.1819      6751.9374     -220.66492     -711.06643      486.01812    
  25608000   256.01271     -356.58111     -281.561       -356.48306      0              4205.7436      46.134088      20.047001      20.857         19289.599      4973.7518      3738.7689      3904.7101     -490.9916       1699.8894     -1524.5901    
  25608500   256.16302     -354.39513     -279.33097     -354.29781      0              4992.4377      46.20641       20.047001      20.857         19319.838      4556.5897      7312.2824      3108.4409     -1824.793      -1973.1811      1871.3845    
  25609000   267.94024     -353.05778     -274.54252     -352.96559      0              5491.7663      46.435364      20.047001      20.857         19415.568      5141.3266      8210.5464      3123.4258      739.99658      500.4247      -138.76245    
ERROR on proc 0: Cannot open restart file restart.lmp.0: Permission denied (../write_restart.cpp:233)
Last command: run             40000000 upto
