LAMMPS (23 Jun 2022)
echo both

include		in.partitions
variable        pid world 0
include		in.temp
variable	temperature equal 260.0
variable        tempDamp equal 0.100 # this is 0.1 ps
include		in.pressure
variable        pressure equal 5066.25
variable        pressureDamp equal 1.0 #this is 1ps
include		in.seed
variable        seed world 745823

units           metal
atom_style	full
read_restart	restart.lmp.${pid}
read_restart	restart.lmp.0
Reading restart file ...
  restart file = 23 Jun 2022, LAMMPS = 23 Jun 2022
  restoring atom style full from restart
  orthogonal box = (0.50810472 0 0) to (46.942594 20.047001 20.857)
  4 by 1 by 1 MPI processor grid
Summary of lammps deepmd module ...
  >>> Info of deepmd-kit:
  installed to:       /u/sigbjobo/software/DEEPMD_FROM_SOURCE/deepmd-kit/install
  source:             v2.1.3
  source branch:       master
  source commit:      5a32c49
  source commit at:   2022-07-01 09:52:58 +0800
  surpport model ver.:1.1 
  build float prec:   double
  build with tf inc:  /u/sigbjobo/software/DEEPMD_FROM_SOURCE/tensorflow/install/include;/u/sigbjobo/software/DEEPMD_FROM_SOURCE/tensorflow/install/include
  build with tf lib:  /u/sigbjobo/software/DEEPMD_FROM_SOURCE/tensorflow/install/lib/libtensorflow_cc.so;/u/sigbjobo/software/DEEPMD_FROM_SOURCE/tensorflow/install/lib/libtensorflow_framework.so
  set tf intra_op_parallelism_threads: 0
  set tf inter_op_parallelism_threads: 0
  >>> Info of lammps module:
  use deepmd-kit at:  /u/sigbjobo/software/DEEPMD_FROM_SOURCE/deepmd-kit/install
  source:             v2.1.3
  source branch:      master
  source commit:      5a32c49
  source commit at:   2022-07-01 09:52:58 +0800
  build float prec:   double
  build with tf inc:  /u/sigbjobo/software/DEEPMD_FROM_SOURCE/tensorflow/install/include;/u/sigbjobo/software/DEEPMD_FROM_SOURCE/tensorflow/install/include
  build with tf lib:  /u/sigbjobo/software/DEEPMD_FROM_SOURCE/tensorflow/install/lib/libtensorflow_cc.so;/u/sigbjobo/software/DEEPMD_FROM_SOURCE/tensorflow/install/lib/libtensorflow_framework.so
  restoring pair style deepmd from restart
  2268 atoms
Finding 1-2 1-3 1-4 neighbors ...
  special bond factors lj:    0        0        0       
  special bond factors coul:  0        0        0       
     0 = max # of 1-2 neighbors
     0 = max # of 1-3 neighbors
     0 = max # of 1-4 neighbors
     1 = max # of special neighbors
  special bonds CPU = 0.000 seconds
  read_restart CPU = 0.010 seconds
include 	in.setup
variable	out_freq equal 500
variable	out_freq2 equal 1000
variable	out_freq3 equal 5000

timestep        0.0005

neigh_modify    delay 7 every 1

include         in.deepmd
# This is deepMD model

# create groups ###
#group ox type 2
#group hy type 1

mass 2 15.999
mass 1 1.008

pair_style      deepmd ../graph.pb
pair_coeff      * *

bond_style      none
angle_style     none
dihedral_style  none
improper_style  none
neigh_modify exclude none


neighbor        2.0 bin
neigh_modify    every 10 delay 0 check no

thermo          ${out_freq}
thermo          500
thermo_style 	custom step temp pe etotal epair emol press lx ly lz vol pxx pyy pzz pxy pxz pyz
#thermo_modify	flush yes
restart 	${out_freq} restart.lmp.${pid} restart2.lmp.${pid}
restart 	500 restart.lmp.${pid} restart2.lmp.${pid}
restart 	500 restart.lmp.0 restart2.lmp.${pid}
restart 	500 restart.lmp.0 restart2.lmp.0

include		in.dump
dump            myDump all atom ${out_freq3} dump.water.${pid}
dump            myDump all atom 5000 dump.water.${pid}
dump            myDump all atom 5000 dump.water.0
dump            myDump2 all dcd ${out_freq2} dump.dcd.${pid}
dump            myDump2 all dcd 1000 dump.dcd.${pid}
dump            myDump2 all dcd 1000 dump.dcd.0
dump_modify     myDump append yes
dump_modify     myDump2 append yes


timer           timeout 23:50:00 every 1000
New timer settings: style=normal  mode=nosync  timeout=23:50:00

fix             1 all plumed plumedfile plumed.dat outfile plumed.out
fix             3 all nph x ${pressure} ${pressure} ${pressureDamp}
fix             3 all nph x 5066.25 ${pressure} ${pressureDamp}
fix             3 all nph x 5066.25 5066.25 ${pressureDamp}
fix             3 all nph x 5066.25 5066.25 1
fix             4 all temp/csvr ${temperature} ${temperature} ${tempDamp} ${seed}
fix             4 all temp/csvr 260 ${temperature} ${tempDamp} ${seed}
fix             4 all temp/csvr 260 260 ${tempDamp} ${seed}
fix             4 all temp/csvr 260 260 0.1 ${seed}
fix             4 all temp/csvr 260 260 0.1 745823

run             40000000 upto

CITE-CITE-CITE-CITE-CITE-CITE-CITE-CITE-CITE-CITE-CITE-CITE-CITE

Your simulation uses code contributions which should be cited:

- USER-DEEPMD package:

@article{Wang_ComputPhysCommun_2018_v228_p178,
  author = {Wang, Han and Zhang, Linfeng and Han, Jiequn and E, Weinan},
  doi = {10.1016/j.cpc.2018.03.016},
  url = {https://doi.org/10.1016/j.cpc.2018.03.016},
  year = 2018,
  month = {jul},
  publisher = {Elsevier {BV}},
  volume = 228,
  journal = {Comput. Phys. Commun.},
  title = {{DeePMD-kit: A deep learning package for many-body potential energy representation and molecular dynamics}},
  pages = {178--184}
}

CITE-CITE-CITE-CITE-CITE-CITE-CITE-CITE-CITE-CITE-CITE-CITE-CITE

Generated 0 of 1 mixed pair_coeff terms from geometric mixing rule
Neighbor list info ...
  update every 10 steps, delay 0 steps, check no
  max neighbors/atom: 2000, page size: 100000
  master list distance cutoff = 8
  ghost atom cutoff = 8
  binsize = 4, bins = 12 6 6
  1 neighbor lists, perpetual/occasional/extra = 1 0 0
  (1) pair deepmd, perpetual
      attributes: full, newton on
      pair build: full/bin
      stencil: full/bin/3d
      bin: standard
Per MPI rank memory allocation (min/avg/max) = 7.208 | 7.209 | 7.211 Mbytes
   Step          Temp          PotEng         TotEng         E_pair         E_mol          Press            Lx             Ly             Lz           Volume          Pxx            Pyy            Pzz            Pxy            Pxz            Pyz      
   7585000   258.68062     -352.31313     -276.51124     -352.31313      0              5371.4623      46.43449       20.047001      20.857         19415.203      5538.7442      5026.0529      5549.5897      89.367458      1419.3118     -85.62162     
   7585500   260.01141     -352.1828      -275.99094     -352.08194      0              6015.4809      46.146256      20.047001      20.857         19294.686      7761.3362      6072.3301      4212.7764      1012.4023      750.43147     -1035.021     
   7586000   264.24737     -354.05839     -276.62525     -353.95801      0              4945.5656      45.995918      20.047001      20.857         19231.827      3618.4255      5368.1472      5850.124      -960.64789     -238.50409     -459.56032    
   7586500   262.64527     -355.03029     -278.06663     -354.94651      0              3512.4226      46.178214      20.047001      20.857         19308.049      4102.0783      3463.8675      2971.322       270.55165      549.48758      436.92879    
   7587000   267.76287     -354.0089      -275.54561     -353.91725      0              3725.4601      46.331424      20.047001      20.857         19372.109      2513.5485      5129.9418      3532.8898      412.49508      334.93532      568.97338    
   7587500   261.35946     -352.08404     -275.49716     -351.96624      0              5575.4485      46.192311      20.047001      20.857         19313.943      6538.7095      4866.3079      5321.328       1235.4569      154.85225      2315.2704    
   7588000   263.12163     -352.77698     -275.67373     -352.69327      0              6187.1905      45.940925      20.047001      20.857         19208.834      7374.1975      4268.1842      6919.19       -770.66911      963.8183       1933.3274    
   7588500   258.21385     -354.21348     -278.54836     -354.12444      0              4922.8961      46.006025      20.047001      20.857         19236.053      6974.2315      5601.5504      2192.9063     -705.86108      411.58245      1124.3235    
   7589000   253.41684     -353.07806     -278.81863     -352.96018      0              3805.9474      46.188976      20.047001      20.857         19312.548      4124.4018      3962.4418      3330.9986      126.57902     -1533.0529      2367.6468    
   7589500   262.62224     -354.5686      -277.61168     -354.45013      0              3681.153       46.151628      20.047001      20.857         19296.933      2050.6215      6054.3462      2938.4913      56.264915      1400.8864      1978.6575    
   7590000   262.95067     -354.41528     -277.36212     -354.32586      0              4527.1912      46.114335      20.047001      20.857         19281.339      2891.8818      6961.6345      3728.0572      64.802591     -879.10547     -982.82484    
   7590500   259.73249     -355.50426     -279.39413     -355.38999      0              5728.31        46.164496      20.047001      20.857         19302.313      4374.0169      7643.2114      5167.7018      511.41444      1436.502       731.4374     
   7591000   264.12288     -355.47193     -278.07528     -355.37386      0              4889.2175      45.976142      20.047001      20.857         19223.558      4613.5261      5206.5227      4847.6036     -640.36698      1393.3472     -810.46783    
   7591500   254.71725     -353.27984     -278.63934     -353.16399      0              5025.4279      45.730313      20.047001      20.857         19120.772      9057.9836      3221.5674      2796.7328     -932.25952      2156.8538      434.01835    
   7592000   257.11034     -351.38449     -276.04274     -351.28564      0              4014.1537      46.085347      20.047001      20.857         19269.219      3544.3953      3812.9586      4685.107       866.14347      1671.6471      754.40409    
   7592500   264.46814     -353.5014      -276.00358     -353.41686      0              4904.0988      46.464771      20.047001      20.857         19427.864      5849.9607      5846.4233      3015.9125      308.68213      482.4746       1218.7134    
   7593000   261.19116     -354.92876     -278.39119     -354.81499      0              3303.1917      46.460972      20.047001      20.857         19426.276      3229.4286      3810.6921      2869.4543      1644.5554     -815.02944      2975.0233    
   7593500   257.53344     -354.08347     -278.61774     -353.96569      0              1284.9354      46.183687      20.047001      20.857         19310.337      2216.6146     -464.8374       2103.0292      223.1165       697.20765     -551.82766    
   7594000   258.40796     -350.02734     -274.30534     -349.92835      0              4597.3085      46.107371      20.047001      20.857         19278.428      6362.8256      1989.048       5440.0519      810.89785      1780.8615      89.310967    
   7594500   265.67047     -353.07683     -275.22668     -352.95905      0              4410.4976      46.416578      20.047001      20.857         19407.714      4208.4717      4374.0185      4649.0028      430.18353     -97.606244      685.02932    
   7595000   261.45603     -351.43876     -274.82358     -351.34609      0              3323.2276      46.517317      20.047001      20.857         19449.835      2332.3584      4594.064       3043.2603     -482.56728      1508.7715      294.60006    
   7595500   266.88233     -349.07912     -270.87386     -348.96074      0              6991.1292      46.138012      20.047001      20.857         19291.239      4762.9717      9095.5662      7114.8495      500.68127     -384.51377     -580.48785    
   7596000   263.75707     -352.17751     -274.88805     -352.08863      0              3843.2645      46.049288      20.047001      20.857         19254.142      6102.6024      2916.1351      2511.0561      715.78083      380.99374      354.35031    
   7596500   259.95531     -353.81837     -277.64295     -353.71364      0              5729.8082      46.30617       20.047001      20.857         19361.55       7473.1447      6570.67        3145.61        751.23456      1284.3759     -404.50111    
   7597000   256.74534     -350.63445     -275.39966     -350.53495      0              2741.4554      46.61782       20.047001      20.857         19491.857      3181.4356      3476.6186      1566.3121      568.74942     -57.669757      1591.9473    
   7597500   261.12108     -350.93023     -274.4132      -350.84047      0              3020.7438      46.591163      20.047001      20.857         19480.711      2703.6219      3447.9215      2910.688      -495.66758     -927.16113     -236.85976    
   7598000   263.14659     -350.14992     -273.03935     -350.05957      0              4984.7544      46.194847      20.047001      20.857         19315.003      4871.2291      5108.4789      4974.5552     -756.25847     -649.61631      727.57218    
   7598500   257.98847     -351.51349     -275.91442     -351.42969      0              5716.2599      46.078329      20.047001      20.857         19266.285      9218.7729      5569.9403      2360.0665      1332.3094     -84.376365      839.55762    
   7599000   254.59097     -353.80428     -279.20079     -353.72182      0              4216.067       46.357626      20.047001      20.857         19383.064      4719.9001      2427.69        5500.6111      1214.0545     -1511.2902      1974.8666    
   7599500   258.61201     -355.80974     -280.02795     -355.70598      0              4579.1734      46.508208      20.047001      20.857         19446.026      5451.0033      5157.9234      3128.5935      247.96013      87.264851     -945.42631    
   7600000   264.08427     -353.44391     -276.05857     -353.33045      0              4246.9788      46.465389      20.047001      20.857         19428.122      4660.7712      3810.4181      4269.7471      1635.7639      409.87272      861.44006    
   7600500   260.51912     -353.89551     -277.55488     -353.77838      0              4976.1611      46.525538      20.047001      20.857         19453.272      4923.4661      6335.1573      3669.86       -747.01442     -726.44858     -830.36523    
   7601000   261.25689     -353.37254     -276.81572     -353.27525      0              3605.3991      46.241139      20.047001      20.857         19334.359      4481.7296      1556.3273      4778.1405      2565.3365      573.24819     -91.241991    
   7601500   258.28715     -351.83949     -276.15289     -351.75675      0              5769.9566      45.988581      20.047001      20.857         19228.759      6943.4948      5007.3372      5359.0377     -552.08217     -1268.8089      1042.3479    
   7602000   260.24209     -352.60456     -276.3451      -352.51513      0              2922.022       46.163707      20.047001      20.857         19301.983      4426.3328      3065.4704      1274.263       2136.512       689.57817     -431.67267    
   7602500   262.09459     -352.56758     -275.76528     -352.4504       0              3273.2837      46.333143      20.047001      20.857         19372.828      3020.9173      2576.1249      4222.8088     -554.4692       2530.2914      1014.6511    
   7603000   253.9261      -352.88842     -278.47976     -352.77347      0              5482.4063      46.279551      20.047001      20.857         19350.42       5790.4873      6251.7055      4405.0262     -710.5406       375.92929     -152.31271    
   7603500   256.92011     -353.42413     -278.13812     -353.32339      0              6345.1295      46.013208      20.047001      20.857         19239.056      9571.8962      5627.5749      3835.9173     -1129.1699      1396.4418     -823.33842    
   7604000   266.45041     -355.75989     -277.68119     -355.67591      0              4820.045       46.32331       20.047001      20.857         19368.716      3697.8741      6305.6255      4456.6353     -835.7518       585.10702     -894.47775    
   7604500   254.6978      -351.98922     -277.35442     -351.88587      0              3361.639       46.283887      20.047001      20.857         19352.233      3167.9223      4018.4545      2898.5403      794.94625      1134.5818     -2061.5085    
   7605000   248.71044     -352.39677     -279.51646     -352.27861      0              4302.3573      46.104797      20.047001      20.857         19277.352      3892.5286      4566.6616      4447.8817      427.25623      1115.9181     -846.2054     
   7605500   256.26497     -353.00288     -277.90886     -352.89114      0              4733.6479      46.017703      20.047001      20.857         19240.936      4570.8564      5179.564       4450.5233     -495.27204      771.1752      -381.19556    
   7606000   254.83413     -354.81732     -280.14257     -354.71178      0              3791.823       46.138982      20.047001      20.857         19291.645      4767.0181      3823.062       2785.3889      214.70005     -252.58171     -1180.5492    
   7606500   257.02281     -356.41783     -281.10173     -356.30191      0              4946.6918      46.195502      20.047001      20.857         19315.277      6217.9983      4241.4771      4380.5999     -50.705542      757.63834      245.60449    
   7607000   256.05492     -352.33253     -277.30005     -352.23301      0              5201.0828      46.247491      20.047001      20.857         19337.015      5237.763       5187.5874      5177.898      -607.71884      3016.3963     -662.21929    
   7607500   255.45308     -351.94324     -277.08713     -351.84713      0              3897.2763      46.388722      20.047001      20.857         19396.066      5610.5766      3780.1039      2301.1485     -1509.9109     -626.87703     -215.42351    
   7608000   258.47369     -356.10216     -280.3609      -356.01966      0              4653.3942      46.376966      20.047001      20.857         19391.151      5075.3509      3884.0264      5000.8055      830.68036      12.718563      1033.0163    
   7608500   259.79391     -353.29658     -277.16846     -353.2152       0              4476.9364      46.210119      20.047001      20.857         19321.389      5947.8547      5896.3607      1586.5938     -301.79215      1422.5733      1541.0822    
   7609000   260.60959     -351.23792     -274.87077     -351.12124      0              4822.4999      46.095346      20.047001      20.857         19273.4        5807.2404      4155.1087      4505.1505      1032.8883      931.20054     -1195.3817    
   7609500   257.79628     -352.69062     -277.14787     -352.57319      0              3906.9088      46.127031      20.047001      20.857         19286.648      3962.2395      3568.5728      4189.9141      18.035475      1172.079       930.44812    
   7610000   264.19932     -350.51421     -273.09516     -350.40382      0              9033.7269      45.94493       20.047001      20.857         19210.508      11210.305      7621.7684      8269.1074      75.70893       693.07711     -24.386939    
   7610500   264.51819     -353.2921      -275.77961     -353.21346      0              5959.4717      46.027341      20.047001      20.857         19244.965      6836.1334      5992.6678      5049.6138     -1173.6148      2566.8134      530.71712    
   7611000   263.39521     -350.20765     -273.02423     -350.12481      0              1400.495       46.487986      20.047001      20.857         19437.571      3463.3812      475.37507      262.7288      -785.09642      1055.4817     -1616.8661    
   7611500   260.22528     -353.07173     -276.8172      -352.99014      0              6217.401       46.528253      20.047001      20.857         19454.407      5363.3051      5954.0737      7334.8243      405.38229      495.68911     -934.2976     
   7612000   266.33726     -352.37125     -274.32571     -352.30053      0              3427.0964      46.2597        20.047001      20.857         19342.12       1939.4261      4745.67        3596.1931     -97.49016       1893.967       504.94248    
   7612500   262.5312      -352.17508     -275.24484     -352.08712      0              5708.7943      46.219285      20.047001      20.857         19325.221      4249.0097      5325.684       7551.6892      319.25613     -1573.6718     -1990.9935    
   7613000   261.21093     -353.7001      -277.15675     -353.60349      0              3520.4537      46.365384      20.047001      20.857         19386.308      5507.5672      2260.9098      2792.8841      1084.7615      363.37753     -243.41857    
   7613500   257.49141     -351.26594     -275.81252     -351.18338      0              2700.0275      46.327355      20.047001      20.857         19370.408      3269.1107      3422.7278      1408.244       768.20129      2983.0937     -759.90047    
   7614000   256.65449     -353.57588     -278.36771     -353.49274      0              5246.1775      46.290245      20.047001      20.857         19354.891      7268.0912      3310.8441      5159.5972      273.56854     -268.36991      1178.3782    
   7614500   260.92268     -352.02206     -275.56317     -351.92828      0              3221.0735      46.251894      20.047001      20.857         19338.856      1323.8797      3463.4221      4875.9187     -1381.6952      1883.0538     -595.86139    
   7615000   267.29758     -349.81208     -271.48514     -349.72008      0              6592.7866      46.236618      20.047001      20.857         19332.468      5660.9246      7979.1092      6138.3262      449.89968     -1322.4186      61.438702    
   7615500   253.56401     -349.36826     -275.0657      -349.2835       0              3855.448       46.366446      20.047001      20.857         19386.752      4126.5878      3800.3546      3639.4015      829.20089      4.1525915     -1444.3851    
   7616000   270.85001     -352.70389     -273.33597     -352.60551      0              6129.5041      46.348508      20.047001      20.857         19379.252      6351.5266      5860.6286      6176.3573     -106.85721      194.74414      170.23052    
   7616500   262.187       -353.29125     -276.46188     -353.18465      0              6168.6522      46.392235      20.047001      20.857         19397.535      6771.6252      6041.0663      5693.2651     -1483.5431     -1356.8261     -1772.5903    
   7617000   258.79502     -353.14457     -277.30916     -353.0453       0              3577.0244      46.284978      20.047001      20.857         19352.689      3350.7982      4101.1018      3279.1732     -267.43806      1710.0314     -760.36927    
   7617500   263.55487     -353.21159     -275.98139     -353.11042      0              3327.6795      46.512627      20.047001      20.857         19447.874      3421.933       4997.3607      1563.7449      384.94829      447.01156     -178.41606    
   7618000   260.38943     -351.7561      -275.45347     -351.65844      0              3982.2044      46.696567      20.047001      20.857         19524.783      4057.2531      4316.6164      3572.7438     -1323.5502      48.902542      1560.9531    
   7618500   256.21397     -353.54713     -278.46804     -353.46563      0              4568.026       46.387951      20.047001      20.857         19395.744      6173.2382      5127.1074      2403.7323     -664.81703      1200.037       691.70256    
   7619000   257.89424     -354.77081     -279.19935     -354.66592      0              5661.2193      46.158787      20.047001      20.857         19299.926      5489.6931      5962.4164      5531.5483      288.19208      1473.6917     -563.80512    
   7619500   254.86771     -355.20993     -280.52534     -355.10999      0              4874.0398      46.199699      20.047001      20.857         19317.032      6443.0968      4547.6085      3631.4141     -1806.393       856.9289      -790.19581    
   7620000   261.74598     -357.12427     -280.42413     -357.00648      0              7835.082       46.187399      20.047001      20.857         19311.889      6137.4457      8739.8068      8627.9936      1349.1038      1000.821       758.11307    
   7620500   259.2709      -352.96047     -276.9856      -352.91046      0              4473.2396      46.429925      20.047001      20.857         19413.294      3823.3177      5386.6612      4209.7399     -1349.3005     -88.548848      1338.3578    
   7621000   259.37576     -353.41914     -277.41355     -353.3361       0              4471.291       46.25462       20.047001      20.857         19339.996      5889.1914      3875.4811      3649.2006     -416.73282     -660.28391      359.31582    
   7621500   253.15274     -353.14485     -278.96281     -353.11223      0              6362.4079      46.072598      20.047001      20.857         19263.889      9036.1736      5634.9532      4416.0969     -1192.8101     -381.60399     -1174.6927    
   7622000   257.52266     -353.84771     -278.38514     -353.77746      0              4010.1967      46.292949      20.047001      20.857         19356.022      4580.0016      2744.1117      4706.4766     -386.60257      1368.0113     -0.5834126    
   7622500   259.37113     -354.20569     -278.20145     -354.16424      0              4146.0267      46.573529      20.047001      20.857         19473.338      4048.8931      3962.5765      4426.6105     -1005.9536     -289.69713     -755.06804    
   7623000   261.6437      -351.33897     -274.6688      -351.23681      0              3972.4817      46.367329      20.047001      20.857         19387.121      3068.5247      4642.7726      4206.1478      346.47041      276.64498      103.47327    
   7623500   258.20324     -351.32729     -275.66529     -351.21667      0              4005.7746      46.186944      20.047001      20.857         19311.699      3717.2322      6118.6561      2181.4356     -318.51717      835.36005     -565.76       
   7624000   261.76947     -354.83122     -278.12419     -354.72064      0              4121.9839      46.367094      20.047001      20.857         19387.023      3585.322       5403.0474      3377.5824     -429.09403      176.27775      16.168972    
   7624500   267.2679      -352.99476     -274.67651     -352.90326      0              4986.322       46.459196      20.047001      20.857         19425.533      2589.979       6971.8491      5397.138       121.23611     -285.94986      1087.807     
   7625000   261.27906     -354.76696     -278.20364     -354.69312      0              5741.2088      46.415848      20.047001      20.857         19407.408      5281.4673      6364.7842      5577.375      -648.32471      859.72056      4.2875899    
   7625500   258.45732     -354.82649     -279.09003     -354.74644      0              4181.7004      46.397307      20.047001      20.857         19399.656      6208.1723      3991.0045      2345.9243      614.20676      945.64331     -597.3475     
   7626000   257.73755     -354.44672     -278.92118     -354.36172      0              1737.967       46.454845      20.047001      20.857         19423.714      1932.7621      985.24856      2295.8903     -2077.3689      2810.3222     -114.32789    
   7626500   266.00148     -354.67925     -276.7321      -354.59834      0              3197.6256      46.491161      20.047001      20.857         19438.898      6082.935       1169.7177      2340.224      -733.25432      1029.3459      171.94078    
   7627000   259.11017     -352.67278     -276.74502     -352.59214      0              7126.1023      46.372519      20.047001      20.857         19389.292      8175.0465      8612.2257      4591.0348     -2310.7767      119.2235       1226.7346    
   7627500   255.33381     -351.61768     -276.79651     -351.5284       0              3227.4537      46.355442      20.047001      20.857         19382.151      3510.7632      3995.0783      2176.5197     -132.29096      1107.909      -937.02352    
   7628000   260.05785     -352.58788     -276.38241     -352.51515      0              6576.3078      46.273849      20.047001      20.857         19348.036      8042.7196      7218.7485      4467.4553      1268.8278      3208.4552     -2088.7238    
   7628500   261.07341     -352.36419     -275.86113     -352.27682      0              5988.9756      46.263494      20.047001      20.857         19343.706      7299.7086      5593.2172      5074.0011     -0.14739512     949.86476     -650.6914     
   7629000   260.95485     -355.80332     -279.33501     -355.7073       0              3077.8748      46.497964      20.047001      20.857         19441.743      3446.6051      3585.5318      2201.4875      1048.2934      942.81865      1368.1598    
   7629500   257.24705     -352.4416      -277.05979     -352.35317      0              5438.8314      46.178078      20.047001      20.857         19307.992      5053.3429      6765.7818      4497.3696     -574.49876      1056.3716     -1096.7895    
   7630000   256.96947     -354.70291     -279.40243     -354.60783      0              5210.3341      45.823834      20.047001      20.857         19159.875      5812.6348      4395.9793      5422.3883      242.84075     -838.17113      828.28571    
   7630500   254.46619     -355.28356     -280.71663     -355.20064      0              2354.1549      46.081091      20.047001      20.857         19267.44       2608.0677      2410.007       2044.3899     -255.28121     -291.70827     -31.151096    
   7631000   262.4065      -355.2841      -278.3904      -355.20133      0              5799.6538      46.461017      20.047001      20.857         19426.294      6438.4235      4936.3424      6024.1955     -146.02134      1311.2829      745.5319     
   7631500   261.0562      -353.2859      -276.78788     -353.1851       0              4184.4074      46.569566      20.047001      20.857         19471.681      3524.4562      3670.6563      5358.1098     -316.91407     -663.79912     -525.63922    
   7632000   257.91362     -350.86874     -275.2916      -350.79666      0              2677.6763      46.273132      20.047001      20.857         19347.736      2621.4939      3743.6661      1667.8689     -356.73569      1732.4827      1056.9984    
   7632500   265.62972     -352.11385     -274.27564     -352.04155      0              5662.4212      46.179148      20.047001      20.857         19308.439      5729.6995      5144.439       6113.125       862.39428      451.90333      1300.7707    
   7633000   256.40184     -352.59898     -277.46484     -352.53113      0              5415.5212      46.523313      20.047001      20.857         19452.342      5305.4669      6107.7595      4833.3372      234.93844      1571.9971      1392.4565    
   7633500   264.32784     -353.88652     -276.42981     -353.82527      0              4166.7415      46.616647      20.047001      20.857         19491.366      2064.3267      7485.7127      2950.1851      379.75416      257.20365     -1531.7536    
   7634000   268.1483      -351.93807     -273.36183     -351.85476      0              4770.0664      46.510276      20.047001      20.857         19446.89       5616.4754      4596.9288      4096.7951     -1599.3996     -1164.0794     -533.16028    
   7634500   262.34887     -347.03077     -270.15396     -346.94415      0              3087.4021      46.463276      20.047001      20.857         19427.239      4013.9489      2535.0582      2713.1994     -419.04348     -60.818949     -446.5185     
   7635000   258.15709     -350.58935     -274.94087     -350.521        0              4651.0543      46.386346      20.047001      20.857         19395.073      4502.0947      2952.5009      6498.5673      2117.3825      395.73341     -1493.6206    
   7635500   260.31698     -352.13879     -275.85739     -352.09532      0              4783.068       46.18226       20.047001      20.857         19309.741      4618.2388      5091.3009      4639.6642     -75.172764     -245.81127      861.61498    
   7636000   268.84349     -352.97581     -274.19587     -352.89753      0              4545.5083      46.191235      20.047001      20.857         19313.493      5468.7402      5150.6437      3017.1409      216.57075      2.1745956     -424.55971    
   7636500   266.11596     -354.33548     -276.35479     -354.24257      0              4861.977       46.311002      20.047001      20.857         19363.57       4764.3677      6053.6763      3767.8869      202.26977      299.30124     -677.21027    
   7637000   263.48044     -354.18077     -276.97237     -354.08274      0              8725.761       46.171698      20.047001      20.857         19305.324      10511.169      7189.8553      8476.2589     -50.054246      97.65191       79.110676    
   7637500   260.70575     -351.5361      -275.14078     -351.46593      0              2867.7278      46.249755      20.047001      20.857         19337.961      5190.5121     -225.51475      3638.1861      1794.1228      1373.7131      193.99942    
   7638000   259.40132     -353.79872     -277.78563     -353.7213       0              3375.9843      46.337664      20.047001      20.857         19374.718      3628.8755      3270.9331      3228.1444     -2245.9194     -1749.982      -759.30136    
   7638500   264.42195     -354.90195     -277.41766     -354.82183      0              6166.0476      46.294503      20.047001      20.857         19356.671      7396.177       6915.6802      4186.2856     -1466.4894      287.77444      2002.0972    
   7639000   262.12481     -352.2284      -275.41724     -352.17852      0              3872.481       46.229858      20.047001      20.857         19329.642      5104.5019      2864.6399      3648.3011      1728.5482     -585.75496      383.4078     
   7639500   259.80491     -355.83652     -279.70517     -355.74381      0              3777.8833      46.06511       20.047001      20.857         19260.758      4813.2721      4683.4568      1836.921      -230.99425      1589.6035      691.0509     
   7640000   266.19551     -353.66161     -275.65761     -353.55466      0              6716.1801      46.016018      20.047001      20.857         19240.231      7320.2375      7057.7507      5770.5522      949.51379     -3034.1581     -986.76149    
   7640500   254.08194     -351.42217     -276.96785     -351.30396      0              4781.7729      46.17652       20.047001      20.857         19307.34       3551.4821      6415.1749      4378.6618      598.69887      1545.3979     -5.5776025    
   7641000   261.31004     -349.4304      -272.858       -349.38314      0              4575.7312      46.197195      20.047001      20.857         19315.985      4629.4102      4411.1083      4686.6752     -517.52789      696.71035     -148.14016    
   7641500   256.65552     -350.8328      -275.62432     -350.7645       0              4870.0065      45.936739      20.047001      20.857         19207.083      5773.6454      5384.8083      3451.5659      1031.2383      1341.3328      294.4165     
   7642000   256.83458     -354.27522     -279.01428     -354.19024      0              6386.1277      46.034821      20.047001      20.857         19248.093      8481.6743      6041.7604      4634.9483      145.97798      593.83376      643.53877    
   7642500   254.00512     -351.30035     -276.86853     -351.25074      0              3866.9233      46.273837      20.047001      20.857         19348.031      2798.9097      6737.5814      2064.2787      188.18902      848.32601     -1548.0775    
   7643000   260.43793     -353.33037     -277.01353     -353.30976      0              6163.2725      46.142163      20.047001      20.857         19292.975      10340.581      6390.5359      1758.7002      1588.9145     -813.31835     -85.259218    
   7643500   266.52765     -352.98531     -274.88398     -352.96492      0              6152.2796      46.225806      20.047001      20.857         19327.948      5430.6962      5964.3287      7061.8139      307.94687     -839.75492      397.86351    
   7644000   267.66095     -355.21062     -276.7772      -355.17475      0              4076.542       46.121985      20.047001      20.857         19284.538      5838.4243      1625.1543      4766.0475     -251.12818      378.19438      481.68771    
   7644500   265.77336     -353.0389      -275.1586      -353.01747      0              3022.1235      46.03396       20.047001      20.857         19247.733      5358.8917      1875.135       1832.3438      2870.9545     -839.10839     -541.74188    
   7645000   262.91488     -353.99302     -276.95035     -353.91001      0              4112.8409      45.810029      20.047001      20.857         19154.103      6639.323       2417.6431      3281.5565     -864.01439      1111.0467     -263.00635    
   7645500   258.64388     -353.13945     -277.34832     -353.12171      0              4847.9196      46.100979      20.047001      20.857         19275.755      4138.6021      5051.0913      5354.0655      217.21597      1896.8566      1342.053     
   7646000   262.30635     -354.17229     -277.30794     -354.13608      0              4870.9077      46.2222        20.047001      20.857         19326.44       3625.8547      5809.9504      5176.9181     -161.81604      192.22246      454.86202    
   7646500   266.20175     -352.78155     -274.77572     -352.72662      0              4754.3653      45.819478      20.047001      20.857         19158.054      5390.9453      4740.5318      4131.6189      1097.3985      195.28332     -499.3431     
   7647000   260.41323     -351.91505     -275.60544     -351.86652      0              3669.3631      45.58094       20.047001      20.857         19058.316      3495.3531      5218.6332      2294.1028     -150.45701      235.05229     -628.88847    
   7647500   256.31669     -353.47606     -278.36687     -353.4038       0              6262.2257      45.773853      20.047001      20.857         19138.977      6106.6166      7572.0923      5107.9683      606.90915     -878.83439     -154.5406     
   7648000   266.00288     -350.576       -272.62844     -350.50634      0              5531.63        46.321604      20.047001      20.857         19368.003      5363.2789      7251.6333      3979.9779     -568.64431      1021.6543     -959.02713    
   7648500   259.26761     -353.31224     -277.33833     -353.24407      0              4646.4735      46.134279      20.047001      20.857         19289.678      7058.4975      3341.3061      3539.6168      536.03334     -318.75741      693.7982     
   7649000   270.0097      -353.95519     -274.83351     -353.87385      0              7502.41        46.030464      20.047001      20.857         19246.271      8506.657       8659.5813      5340.9918      388.84644      1127.9492     -187.63402    
   7649500   259.78657     -356.31878     -280.19281     -356.24116      0              4961.2462      46.224521      20.047001      20.857         19327.411      4469.7061      5417.986       4996.0465     -71.205868     -104.30453      288.16051    
   7650000   250.77616     -355.38846     -281.90283     -355.32102      0              3242.2542      46.195345      20.047001      20.857         19315.211      4156.1345      3085.1309      2485.4973     -760.29278      270.07502      984.58012    
   7650500   244.87264     -352.58187     -280.82617     -352.56065      0              5172.5566      46.183083      20.047001      20.857         19310.084      5429.9521      4787.5449      5300.1728     -676.24193      343.32243     -178.06824    
   7651000   261.1539      -352.62462     -276.09797     -352.57534      0              4256.9238      46.387837      20.047001      20.857         19395.696      4091.8588      3583.2631      5095.6496     -286.74764     -1096.3509      870.56589    
   7651500   267.27323     -353.56805     -275.24825     -353.54263      0              4287.9992      46.345466      20.047001      20.857         19377.98       4717.4826      4311.3642      3835.1507     -594.19195      736.7729       1105.0349    
   7652000   256.01356     -352.845       -277.82464     -352.76307      0              4118.9765      46.180261      20.047001      20.857         19308.905      5123.4365      2883.2758      4350.2173      171.54259      1556.7265     -921.72594    
   7652500   258.98509     -354.34181     -278.45069     -354.26176      0              4322.213       46.287418      20.047001      20.857         19353.709      5716.1179      3638.2907      3612.2305      1506.008      -779.61086     -1365.8774    
   7653000   258.51615     -354.91103     -279.15733     -354.86312      0              5130.4195      46.20702       20.047001      20.857         19320.093      3117.3696      7015.5068      5258.382      -1213.824      -672.40474      1342.2426    
   7653500   263.42391     -353.5947      -276.40287     -353.5267       0              7273.2048      45.972526      20.047001      20.857         19222.047      6091.1881      6470.2113      9258.215       807.83957     -1839.3608      115.46183    
   7654000   256.71643     -355.30752     -280.0812      -355.26204      0              4471.0814      46.265875      20.047001      20.857         19344.702      6299.7245      4144.0119      2969.5077     -858.01409      216.90262      1072.3597    
   7654500   261.12948     -355.01907     -278.49957     -354.96362      0              3121.0326      46.470912      20.047001      20.857         19430.431      4167.1694      2114.5938      3081.3346     -795.57203      1025.4673      123.16105    
   7655000   258.73959     -354.77611     -278.95694     -354.7044       0              5341.9572      46.071254      20.047001      20.857         19263.326      4577.1601      5087.3065      6361.4049     -538.33191      391.08677     -196.02203    
   7655500   257.0694      -354.9878      -279.65804     -354.8904       0              4638.0551      45.916858      20.047001      20.857         19198.771      5382.5278      4491.3144      4040.3232     -45.058387      926.98661      1539.5892    
   7656000   259.33547     -355.65263     -279.65885     -355.57339      0              3969.5568      46.053259      20.047001      20.857         19255.803      1491.9904      6802.2435      3614.4365      1597.9771     -520.79315     -609.83863    
   7656500   254.97943     -352.52479     -277.80747     -352.46534      0              3658.7385      46.125736      20.047001      20.857         19286.106      4144.0969      1753.5669      5078.5515     -2337.1069      547.48741     -482.54137    
   7657000   265.65027     -351.80818     -273.96395     -351.72556      0              4979.4075      46.22277       20.047001      20.857         19326.678      7190.7734      4307.0713      3440.3777     -966.98039     -307.44353     -701.61657    
   7657500   258.66244     -353.24868     -277.45212     -353.20385      0              4824.4044      46.309443      20.047001      20.857         19362.918      4413.305       4251.2415      5808.6666      284.00769     -1257.6847     -87.656259    
   7658000   260.0109      -353.7675      -277.57579     -353.69627      0              3196.2027      46.116036      20.047001      20.857         19282.051      2294.9081      3542.107       3751.593      -13.956774     -427.66043     -406.3903     
   7658500   265.88231     -352.24855     -274.33632     -352.17062      0              5248.425       46.061561      20.047001      20.857         19259.274      5197.636       6170.3517      4377.2872     -938.85848     -1284.938       1534.1772    
   7659000   255.61335     -350.36564     -275.46256     -350.29124      0              5250.6452      46.053711      20.047001      20.857         19255.991      5091.5316      7250.9608      3409.4431      919.84783      98.739899     -955.21087    
   7659500   257.92819     -352.43342     -276.85201     -352.36088      0              5305.9845      46.018111      20.047001      20.857         19241.106      4680.1174      4628.52        6609.3163     -149.06085      120.67042     -538.66266    
   7660000   263.03216     -353.66397     -276.58694     -353.58243      0              4665.941       46.091929      20.047001      20.857         19271.971      5201.498       6136.3551      2659.97       -923.39162      187.87737      1853.3365    
   7660500   259.47826     -353.28338     -277.24775     -353.19857      0              4758.664       46.019348      20.047001      20.857         19241.624      4921.3545      5435.567       3919.0706     -755.98845      880.47425      1096.6822    
   7661000   257.50063     -353.67498     -278.21886     -353.59436      0              4980.9389      46.161921      20.047001      20.857         19301.236      5517.637       4210.4592      5214.7204      818.45348      243.42738      577.23839    
   7661500   251.77433     -356.45055     -282.67242     -356.36082      0              4675.8716      46.238421      20.047001      20.857         19333.222      5491.4877      5196.3085      3339.8187     -780.33301      614.27599     -1162.8708    
   7662000   254.67835     -355.95806     -281.32896     -355.86923      0              2166.8506      46.15946       20.047001      20.857         19300.207      3502.7354      2773.9633      223.85323      295.64415      945.24823     -1558.8949    
   7662500   256.8406      -354.14822     -278.88551     -354.06053      0              3718.869       45.989516      20.047001      20.857         19229.15       4109.2134      4757.6318      2289.7619      553.64689      246.81881      544.17478    
   7663000   262.40253     -350.93458     -274.04205     -350.85498      0              6346.1855      46.16873       20.047001      20.857         19304.083      7167.6247      4064.0953      7806.8363     -350.1943      -1604.271       48.664719    
   7663500   252.73481     -352.73029     -278.67072     -352.64197      0              4223.5572      46.304187      20.047001      20.857         19360.72       3508.5929      5089.6199      4072.4588     -463.82289     -1144.9903      857.50795    
   7664000   251.58824     -354.35017     -280.62657     -354.27899      0              4894.5838      46.254511      20.047001      20.857         19339.95       3941.6922      7326.3002      3415.759       606.64539      268.33288     -1995.2297    
   7664500   255.20467     -352.84312     -278.05979     -352.77225      0              6750.8843      46.165789      20.047001      20.857         19302.853      7786.9993      4020.0758      8445.5777      603.76316      563.31654      2057.0274    
   7665000   257.83095     -353.27162     -277.71871     -353.23859      0              4741.0779      46.276021      20.047001      20.857         19348.944      7199.9372      1376.5462      5646.7502      145.49778      1487.9653     -1176.6249    
   7665500   261.55549     -355.34211     -278.69779     -355.26949      0              4779.7559      46.319175      20.047001      20.857         19366.987      4901.8969      4341.099       5096.2718      267.39786     -712.27368     -801.85492    
   7666000   255.7423      -353.78045     -278.83958     -353.6826       0              4221.8982      46.251406      20.047001      20.857         19338.652      5539.2601      3081.2845      4045.15        737.9229       127.95018      1536.6752    
   7666500   259.645       -355.14323     -279.05874     -355.06107      0              4662.9882      46.167786      20.047001      20.857         19303.689      5550.1446      5982.5101      2456.3099      811.79617     -1272.8269     -1820.2468    
   7667000   260.84349     -355.4109      -278.97522     -355.36699      0              6811.5867      45.884487      20.047001      20.857         19185.236      5754.6026      8484.272       6195.8854     -107.56878     -1559.4444      1707.3114    
   7667500   265.4973      -352.45426     -274.65485     -352.35948      0              5997.7572      45.774582      20.047001      20.857         19139.282      8383.2272      6349.6083      3260.4362      637.74003      1538.074      -847.8859     
   7668000   260.86278     -353.21264     -276.7713      -353.15307      0              5097.7846      46.258234      20.047001      20.857         19341.507      4322.9317      6972.4434      3997.9786      1305.0437      1138.9679      2154.949     
   7668500   260.03609     -353.62193     -277.42284     -353.54706      0              4063.0081      46.195792      20.047001      20.857         19315.398      4840.1626      4181.7202      3167.1415     -1139.1695     -740.65687      835.84902    
   7669000   265.83575     -351.8257      -273.92712     -351.76346      0              5426.2041      45.948894      20.047001      20.857         19212.165      5860.309       6048.4454      4369.8579      746.85466      662.02971     -227.81575    
   7669500   257.48983     -354.03855     -278.5856      -354.00821      0              4384.4855      45.972767      20.047001      20.857         19222.147      4121.5915      1744.3757      7287.4894      1458.8099     -23.706844     -345.57977    
   7670000   254.94106     -353.50578     -278.79971     -353.43299      0              4916.4754      45.876082      20.047001      20.857         19181.721      4710.0592      4314.0462      5725.3209     -932.24267      431.0449      -253.57303    
   7670500   266.21287     -353.51113     -275.50204     -353.48154      0              2504.9031      46.04896       20.047001      20.857         19254.005      2141.506       1756.5576      3616.6457     -578.04128     -72.327629     -187.11165    
   7671000   259.85769     -352.86552     -276.7187      -352.84559      0              6084.9185      46.171236      20.047001      20.857         19305.131      5324.4954      7937.2941      4992.9659     -815.31995      448.37371      441.65967    
   7671500   253.71687     -354.4508      -280.10345     -354.38293      0              3946.6278      46.061532      20.047001      20.857         19259.262      4962.9526      2756.0124      4120.9186     -197.67001      91.56557       256.33728    
   7672000   263.06103     -356.31853     -279.23303     -356.23613      0              5156.3294      45.909043      20.047001      20.857         19195.503      5599.3738      3589.9584      6279.656       47.679184     -810.88313      694.21604    
   7672500   255.51669     -353.3791      -278.50435     -353.29771      0              7561.4524      45.991081      20.047001      20.857         19229.805      8505.1246      8347.5098      5831.7228     -51.459945     -1896.2505      890.124      
   7673000   256.8004      -352.32445     -277.07353     -352.25897      0              2472.6326      46.442576      20.047001      20.857         19418.584      898.2617       3013.4224      3506.2138     -1421.7025     -406.48657      389.56935    
   7673500   257.13419     -352.99787     -277.64913     -352.92505      0              5825.6668      46.226815      20.047001      20.857         19328.37       6654.8651      3935.5531      6886.5823      1214.0274     -238.39875      47.349567    
   7674000   255.66527     -357.19777     -282.27947     -357.10352      0              5521.7142      45.886704      20.047001      20.857         19186.162      6874.9288      5448.0575      4242.1564      279.84892     -873.05541      805.34571    
   7674500   254.02562     -357.54218     -283.10436     -357.44278      0              5455.1534      45.889379      20.047001      20.857         19187.281      5205.8093      6245.3476      4914.3033      601.43887      641.1363       37.039347    
   7675000   252.08629     -356.70843     -282.83889     -356.64021      0              4840.9082      46.185099      20.047001      20.857         19310.927      5899.5511      6744.2004      1878.973       921.1069      -22.185657     -93.87337     
   7675500   259.20341     -354.20825     -278.25317     -354.15863      0              1170.1918      46.44461       20.047001      20.857         19419.434      409.487        1026.1809      2074.9074      745.0588       1086.9621     -596.94889    
   7676000   259.72456     -354.55746     -278.44966     -354.48014      0              4300.9738      46.120707      20.047001      20.857         19284.004      5451.3349      4151.3973      3300.1892      774.56268      72.791812      187.80648    
   7676500   259.77371     -356.07335     -279.95115     -355.98451      0              5295.8269      45.86304       20.047001      20.857         19176.268      6935.9732      3652.158       5299.3496     -23.590287     -1099.0117      1566.9351    
   7677000   261.33169     -354.54515     -277.96641     -354.48267      0              4659.599       46.121082      20.047001      20.857         19284.16       6016.7006      4817.7178      3144.3787     -168.54726     -1323.8899      394.699      
   7677500   260.23204     -353.11836     -276.86185     -353.05508      0              2672.4275      46.237062      20.047001      20.857         19332.654      2236.6712      3206.2778      2574.3337      679.25291      1717.69        156.87246    
   7678000   260.11338     -354.08088     -277.85914     -354.02901      0              5826.1308      45.731819      20.047001      20.857         19121.402      6732.9591      6087.7623      4657.6711      1092.5892      579.5417       1022.5355    
   7678500   251.91661     -353.87582     -280.056       -353.80379      0              3474.1217      45.937006      20.047001      20.857         19207.195      3092.7413      2828.0778      4501.5461     -963.24738      1134.2686     -241.36328    
   7679000   252.53961     -352.91956     -278.91719     -352.83589      0              2720.073       46.170151      20.047001      20.857         19304.677      3074.9025      3416.9066      1668.4099      320.99655     -882.70303      30.813749    
   7679500   257.91859     -353.6721      -278.09351     -353.60251      0              5576.2836      46.100523      20.047001      20.857         19275.565      5201.437       5136.1592      6391.2548     -457.9896       897.01609      200.14116    
   7680000   259.97554     -355.21224     -279.0309      -355.13965      0              3630.0035      46.058885      20.047001      20.857         19258.155      5436.713       3965.9929      1487.3048      103.62311     -3.9407836     -179.4686     
   7680500   260.64474     -354.18117     -277.80373     -354.08893      0              6865.169       46.019869      20.047001      20.857         19241.842      7974.41        5263.8353      7357.2618      680.76594     -627.8718      -408.5342     
   7681000   259.50247     -354.89157     -278.84885     -354.81869      0              3792.8953      46.114614      20.047001      20.857         19281.456      4306.1572      3506.1454      3566.3834     -365.7368      -589.90791      737.82324    
   7681500   255.77067     -354.21762     -279.26843     -354.14094      0              5506.5928      46.08673       20.047001      20.857         19269.797      4608.869       7847.5364      4063.3731      1308.6533      813.50255     -328.74737    
   7682000   256.43794     -353.98086     -278.83615     -353.89717      0              4209.6277      46.294675      20.047001      20.857         19356.743      3685.0801      4746.6696      4197.1334      195.38644     -335.81933      203.83923    
   7682500   253.03118     -353.20095     -279.05453     -353.08291      0              4583.5838      46.29568       20.047001      20.857         19357.164      5307.9106      5014.9049      3427.936       435.23446     -441.39147     -863.71904    
   7683000   264.34792     -356.26254     -278.79994     -356.1646       0              4955.622       46.246841      20.047001      20.857         19336.743      6329.7479      4092.2706      4444.8475     -924.3405       623.42846      1811.3347    
   7683500   260.89914     -356.93977     -280.48778     -356.8499       0              3750.4607      45.962148      20.047001      20.857         19217.707      5009.9618      3213.8728      3027.5476     -341.05308     -603.78991      1610.1427    
   7684000   261.8661      -354.2308      -277.49546     -354.11987      0              5129.7384      46.114743      20.047001      20.857         19281.51       4580.0519      6902.7297      3906.4336      400.65751     -713.03466      441.98895    
   7684500   266.20598     -354.21909     -276.21202     -354.10461      0              4455.9833      46.310773      20.047001      20.857         19363.474      4016.8481      4718.125       4632.9766     -1257.5022     -1419.1876     -2226.5913    
   7685000   263.71725     -352.18712     -274.90933     -352.08657      0              4427.8641      46.183431      20.047001      20.857         19310.23       5471.7066      3855.4238      3956.4618      943.25746     -43.843576      439.91941    
   7685500   257.72443     -352.4959      -276.9742      -352.41427      0              5002.9186      46.245661      20.047001      20.857         19336.25       5162.5394      5615.9069      4230.3094      120.56421     -1967.7597     -1339.8495    
   7686000   264.14573     -356.11837     -278.71502     -356.02239      0              5615.6222      46.420828      20.047001      20.857         19409.491      8046.8053      4429.3166      4370.7448      1243.5162     -373.31389      69.854589    
   7686500   253.93262     -353.07691     -278.66634     -352.99509      0              4417.4958      46.616256      20.047001      20.857         19491.203      4796.5456      5191.2066      3264.7351     -40.016757     -1197.1272     -814.89536    
   7687000   259.68422     -353.86406     -277.76808     -353.7943       0              5287.1759      46.480266      20.047001      20.857         19434.343      8016.7121      3763.7849      4081.0307     -944.69973     -303.83297      246.10287    
   7687500   257.64508     -354.96089     -279.46245     -354.88416      0              4997.4139      46.138645      20.047001      20.857         19291.504      6215.0575      4956.5042      3820.6802      91.760191      152.62816      595.84408    
   7688000   255.6536      -355.52576     -280.61089     -355.44219      0              4031.5976      46.278232      20.047001      20.857         19349.868      4327.6303      5235.6078      2531.5548     -192.3455       555.8192      -1499.253     
   7688500   259.38016     -355.09693     -279.09005     -355.02116      0              3103.3696      46.489392      20.047001      20.857         19438.158      4868.6898      2612.9805      1828.4385      1501.3705     -270.05549      1192.0339    
   7689000   262.1757      -354.62408     -277.79802     -354.53623      0              4770.7592      46.101797      20.047001      20.857         19276.097      5015.5487      5270.1373      4026.5918      1356.989      -1192.8456      888.31636    
   7689500   261.52415     -355.77401     -279.13887     -355.68942      0              5232.0109      46.057239      20.047001      20.857         19257.467      5884.3119      6087.4745      3724.2463      315.28881     -246.04895     -1922.0294    
   7690000   260.70413     -353.8626      -277.46776     -353.82628      0              3927.1995      46.492771      20.047001      20.857         19439.571      3144.5595      5262.1067      3374.9322      95.709837     -429.30598     -1525.4323    
   7690500   268.11144     -352.53204     -273.96661     -352.46643      0              3026.4379      46.399688      20.047001      20.857         19400.651      3674.9669      2660.821       2743.5258      24.380567     -96.677075      267.42305    
   7691000   259.13001     -354.14977     -278.21619     -354.10971      0              5880.3992      46.086817      20.047001      20.857         19269.834      6756.7434      5171.8382      5712.6159      529.21172      2486.7395      1331.3375    
   7691500   263.31258     -352.8076      -275.64839     -352.74558      0              2656.8914      46.193609      20.047001      20.857         19314.486      1623.5917      3736.0845      2610.9981     -330.99825     -1632.5303      386.6701     
   7692000   263.10219     -354.92223     -277.82467     -354.85367      0              4260.076       46.301136      20.047001      20.857         19359.445      5233.1123      3875.3395      3671.7762     -671.66898     -1545.3965      333.92554    
   7692500   264.24439     -353.2124      -275.78014     -353.19371      0              5175.3186      46.354476      20.047001      20.857         19381.747      9302.2712      2072.0244      4151.6604     -292.26713     -943.55131      1324.8113    
   7693000   257.2759      -351.47783     -276.08757     -351.45752      0              2094.0575      46.345109      20.047001      20.857         19377.831      4241.9831      927.07249      1113.1169      254.42163     -183.06154     -1152.4921    
   7693500   264.25543     -352.19338     -274.75789     -352.11103      0              5858.8779      46.167966      20.047001      20.857         19303.764      7002.4092      6870.956       3703.2684      105.11719      693.8239      -895.40925    
   7694000   257.13291     -352.40026     -277.0519      -352.38129      0              4526.5973      45.969545      20.047001      20.857         19220.8        4408.383       3741.9124      5429.4964     -535.12851      962.45574     -195.30675    
   7694500   264.46519     -354.67876     -277.1818      -354.65789      0              4818.5379      46.112748      20.047001      20.857         19280.676      3594.0066      5399.6052      5462.002       809.61386      92.040268     -852.1969     
   7695000   262.82026     -354.04934     -277.0344      -353.96732      0              5109.5249      46.432246      20.047001      20.857         19414.265      5251.7564      4137.707       5939.1113     -97.15681      -382.97604     -683.82374    
   7695500   256.29835     -353.96069     -278.85688     -353.88804      0              2738.9741      46.378626      20.047001      20.857         19391.845      3502.4979      4433.1807      281.24359      89.561123      0.99914548     977.09635    
   7696000   261.83498     -354.13611     -277.40989     -354.05476      0              4018.3178      46.4628        20.047001      20.857         19427.04       6226.4348      3047.4198      2781.0989     -1509.9969     -1274.1065     -30.061963    
   7696500   260.14095     -354.88376     -278.65394     -354.81254      0              4328.5375      46.534368      20.047001      20.857         19456.964      5269.9548      4195.8277      3519.8301     -14.922006      762.5847      -573.51444    
   7697000   255.47895     -354.14397     -279.28027     -354.06334      0              4321.749       46.072991      20.047001      20.857         19264.053      5279.745       3794.5694      3890.9326     -571.19483     -304.13516     -493.37852    
   7697500   260.22902     -355.29349     -279.03787     -355.2222       0              5203.0253      46.062684      20.047001      20.857         19259.743      3013.5286      6222.2632      6373.2842     -213.51503     -145.20307     -853.61966    
   7698000   258.56231     -354.30139     -278.53416     -354.2155       0              3909.7167      46.29976       20.047001      20.857         19358.87       3935.3829      4817.4676      2976.2995      498.00899      93.248839      77.67237     
   7698500   260.66565     -353.14184     -276.75827     -353.08636      0              5527.974       46.307583      20.047001      20.857         19362.14       6138.618       3995.9784      6449.3254      670.71898      2073.3583      415.12205    
   7699000   259.57025     -352.68916     -276.62657     -352.59189      0              4006.5686      45.963368      20.047001      20.857         19218.217      3189.7772      4810.5255      4019.4032     -627.83759     -800.10921     -184.8087     
   7699500   264.0104      -352.41356     -275.04987     -352.33338      0              7464.3139      45.938221      20.047001      20.857         19207.703      8082.7548      7654.9703      6655.2165      9.4507283     -1502.3064      606.24956    
   7700000   265.36378     -353.49761     -275.73734     -353.41131      0              2667.7311      46.459026      20.047001      20.857         19425.462      3211.5354      3636.8029      1154.8548      642.60191      365.0076       2331.3867    
   7700500   263.74847     -353.83246     -276.54552     -353.80813      0              703.54236      46.470324      20.047001      20.857         19430.186      1206.17        1123.2675     -218.8105      -2079.9814     -1454.1831     -610.10723    
   7701000   255.37521     -353.25316     -278.41986     -353.17769      0              4306.3256      46.182115      20.047001      20.857         19309.68       6138.8851      3842.9342      2937.1576     -652.83495      1243.141      -114.93393    
   7701500   256.87884     -351.89693     -276.62302     -351.81845      0              5376.3642      46.232569      20.047001      20.857         19330.776      6555.3076      4363.9292      5209.8557      1180.4212     -962.38548     -555.7589     
   7702000   255.88825     -353.76474     -278.7811      -353.68761      0              5127.7422      46.403303      20.047001      20.857         19402.163      4038.1029      5816.589       5528.5346      989.06299     -122.69503      198.85861    
   7702500   257.56037     -356.97841     -281.50479     -356.91068      0              5579.4946      46.423571      20.047001      20.857         19410.637      6388.2389      4196.359       6153.886      -41.331553     -346.60993      1271.883     
   7703000   254.58304     -353.63903     -279.03786     -353.56652      0              4898.7604      46.252555      20.047001      20.857         19339.132      5108.2761      4601.4895      4986.5157      295.10782     -2971.5787      355.46401    
   7703500   258.41266     -352.78486     -277.06149     -352.71261      0              6988.797       46.003854      20.047001      20.857         19235.145      9037.4832      6290.688       5638.2199     -549.0904       1359.163       821.04792    
   7704000   264.70295     -353.59565     -276.02901     -353.47842      0              3004.6181      46.010915      20.047001      20.857         19238.098      4865.2896      1607.0677      2541.497       233.8151      -1708.21        1016.9188    
   7704500   257.39539     -351.82499     -276.39971     -351.7281       0              6190.8209      46.255039      20.047001      20.857         19340.171      5273.5294      6704.2822      6594.6509     -895.10118     -1826.5853     -50.455247    
   7705000   256.55442     -353.02347     -277.84463     -352.94564      0              3325.0245      46.605584      20.047001      20.857         19486.741      3943.8383      3236.9335      2794.3017     -392.5841       309.64969     -1526.5961    
   7705500   260.57484     -353.75492     -277.39796     -353.70046      0              4823.7973      46.445476      20.047001      20.857         19419.796      5655.2351      2954.3549      5861.8019     -648.39266     -256.63777      1507.4876    
   7706000   256.3457      -352.1422      -277.02452     -352.08531      0              5583.9705      46.361522      20.047001      20.857         19384.693      7500.2345      3807.1829      5444.4941     -361.6337       2249.9048      656.18523    
   7706500   258.48608     -352.31106     -276.56617     -352.20987      0              3565.8108      46.512453      20.047001      20.857         19447.801      6723.0157      49.424088      3924.9926     -1238.0316     -883.37767      1109.9359    
   7707000   255.58466     -352.46097     -277.56629     -352.40074      0              3906.9495      46.759064      20.047001      20.857         19550.914      5648.4469      3509.625       2562.7766      2154.5301     -328.40072     -209.86323    
   7707500   263.08962     -352.00144     -274.90756     -351.93004      0              4869.6647      46.500176      20.047001      20.857         19442.668      2589.641       9435.7857      2583.5673      676.26593      1431.0078      590.05195    
   7708000   256.5859      -354.3754      -279.18733     -354.2932       0              4846.9512      46.396534      20.047001      20.857         19399.333      6716.2522      4254.5784      3570.0229     -541.64002      1607.7629     -1318.2016    
   7708500   258.15635     -353.27286     -277.62459     -353.20808      0              4087.182       46.406473      20.047001      20.857         19403.489      4033.7378      4150.0328      4077.7753      280.95809      373.62858      2605.2951    
   7709000   266.08561     -354.67863     -276.70683     -354.56828      0              6605.2846      46.529066      20.047001      20.857         19454.747      8782.6605      5454.4946      5578.6988      337.65447      758.72536      238.85061    
   7709500   258.65543     -352.54638     -276.75187     -352.48292      0              3554.4433      46.51436       20.047001      20.857         19448.598      6781.6166      1381.7866      2499.9266      237.23036      654.09702     -830.5966     
   7710000   264.53913     -350.36729     -272.84866     -350.28761      0              3924.1098      46.323365      20.047001      20.857         19368.739      5007.3427      2977.1589      3787.8278      1245.0521     -747.26208     -68.040414    
   7710500   262.11091     -353.38495     -276.57787     -353.28735      0              5810.0071      46.565283      20.047001      20.857         19469.89       6517.9003      4879.9035      6032.2174     -207.69056      582.43046      734.95688    
   7711000   264.2787      -353.53465     -276.09233     -353.43818      0              4757.591       46.842779      20.047001      20.857         19585.917      4714.4484      4329.5936      5228.7309      325.65502      720.80568      1459.1639    
   7711500   258.78296     -355.71815     -279.88627     -355.62488      0              4669.4778      46.434163      20.047001      20.857         19415.066      6039.7935      3120.3676      4848.2722     -691.24433     -557.39071     -414.48358    
   7712000   259.16357     -353.54455     -277.60113     -353.4619       0              6035.8568      46.400612      20.047001      20.857         19401.038      9002.6229      3784.1929      5320.7546     -782.44344      153.72306     -1028.21      
   7712500   262.76053     -355.54512     -278.54768     -355.44871      0              4188.4886      46.656806      20.047001      20.857         19508.158      5107.5912      4534.7159      2923.1588     -231.25161     -305.42232      202.81116    
   7713000   257.83969     -354.35101     -278.79554     -354.26685      0              2814.1654      47.050493      20.047001      20.857         19672.766      3057.1955      4049.0541      1336.2465      164.12623      574.95647     -168.76694    
   7713500   257.90701     -353.42467     -277.84946     -353.34337      0              2517.7098      46.994725      20.047001      20.857         19649.449      2516.3105      1653.3687      3383.4503      459.70456     -42.199601      365.23677    
   7714000   260.73868     -353.15937     -276.7544      -353.1353       0              4479.991       46.433892      20.047001      20.857         19414.953      3682.4763      6819.1779      2938.3187     -1055.0812     -1057.4936      556.49404    
   7714500   262.44868     -353.59194     -276.68588     -353.47679      0              4999.7871      46.17827       20.047001      20.857         19308.072      4451.8865      3852.3941      6695.0806      633.74491      206.46697      579.95356    
   7715000   255.87138     -353.31738     -278.33869     -353.21679      0              1953.1541      46.51348       20.047001      20.857         19448.23       2955.9064      1469.5324      1434.0234      362.6098      -1346.6236      1036.6209    
   7715500   260.14015     -351.71678     -275.4872      -351.63185      0              4356.6973      46.509514      20.047001      20.857         19446.572      6914.1954      1060.7469      5095.1495      960.48179      325.42412     -1299.7534    
   7716000   252.40429     -353.67158     -279.70885     -353.59036      0              1873.0752      46.511588      20.047001      20.857         19447.439      3206.227       1940.692       472.30679     -592.9171      -109.09796     -589.0866     
   7716500   251.74439     -353.97219     -280.20284     -353.93067      0              3369.2702      46.462127      20.047001      20.857         19426.758      3134.8255      3315.6402      3657.3451      45.238285      595.9769       325.34463    
   7717000   265.25255     -355.72751     -277.99982     -355.62282      0              4116.4244      46.519913      20.047001      20.857         19450.92       4865.332       4132.4642      3351.477      -732.74881      1224.5423      393.12144    
   7717500   264.09254     -352.56151     -275.17375     -352.4934       0              4198.6671      46.722141      20.047001      20.857         19535.475      3671.5838      3481.6285      5442.7889     -555.74703     -1147.5701      323.66785    
   7718000   261.62914     -350.70291     -274.037       -350.66386      0              5967.9026      46.78756       20.047001      20.857         19562.829      7850.0175      3190.2732      6863.417      -1952.3306      526.53212      1538.2089    
   7718500   256.72282     -350.83972     -275.61153     -350.77227      0              7146.0087      46.489749      20.047001      20.857         19438.308      8501.4182      4838.21        8098.3979      169.89092     -217.43889      508.92152    
   7719000   258.50441     -353.71985     -277.96959     -353.63055      0              2114.2997      46.464681      20.047001      20.857         19427.826      2855.3422      1847.238       1640.319      -569.64286     -2342.1982     -1259.2519    
   7719500   262.92167     -352.10381     -275.05915     -352.05714      0              4649.3171      46.778543      20.047001      20.857         19559.059      6668.4048      2501.424       4778.1225      149.87617      309.09341     -1017.7055    
   7720000   253.66219     -353.23327     -278.90195     -353.16385      0              3081.3608      46.695503      20.047001      20.857         19524.338      2589.1879      3650.5455      3004.349      -1937.5185     -310.33425     -1126.434     
   7720500   263.79642     -353.66483     -276.36384     -353.58369      0              2389.9494      46.140041      20.047001      20.857         19292.088      7711.2362     -1142.6972      601.30928      1006.5623      45.555927      949.66136    
   7721000   260.53432     -353.02707     -276.68198     -352.95042      0              3850.3743      46.195668      20.047001      20.857         19315.346      2010.891       5104.1462      4436.0856     -433.52393      405.33937     -2083.7236    
   7721500   252.00593     -350.01009     -276.1641      -349.93062      0              3560.2206      46.406422      20.047001      20.857         19403.467      4162.6183      4571.0841      1946.9596     -926.88178      852.09048      333.80564    
   7722000   257.74072     -350.88934     -275.36287     -350.85074      0              5416.9767      46.367211      20.047001      20.857         19387.072      7614.3685      3136.6616      5499.8999     -435.97591     -93.384463     -761.82844    
   7722500   264.25187     -351.1985      -273.76404     -351.18102      0              4129.3033      46.362562      20.047001      20.857         19385.128      5129.2887      2987.6584      4270.9629     -823.79905     -457.08571     -2793.1291    
   7723000   259.00712     -351.8839      -275.98633     -351.78512      0              5310.1847      46.641669      20.047001      20.857         19501.828      5953.7379      4451.5301      5525.2859     -368.1769       974.66996      456.15321    
   7723500   261.52607     -354.21814     -277.58244     -354.13607      0              2294.8575      46.746785      20.047001      20.857         19545.78       1578.5914      4932.2972      373.68378      388.50344      678.91968     -165.66281    
   7724000   250.16512     -355.02083     -281.71426     -354.94944      0              4331.7882      46.251541      20.047001      20.857         19338.708      7193.4605      1202.7811      4599.1231     -4.90225       -924.54285     -580.21828    
   7724500   253.15811     -352.00924     -277.82563     -351.93063      0              6849.5091      46.106893      20.047001      20.857         19278.228      5898.4655      7442.1378      7207.924      -126.06474      1568.4177      1885.8461    
   7725000   258.90835     -352.32174     -276.45311     -352.26998      0              3731.7919      46.559497      20.047001      20.857         19467.471      4714.5152      3437.9274      3042.933      -492.60951     -369.56139     -267.76282    
   7725500   268.71104     -354.3165      -275.57537     -354.22881      0              3198.6464      46.790998      20.047001      20.857         19564.266      3546.3453      3402.6656      2646.9282     -2106.844       830.97925     -1573.1902    
   7726000   258.99562     -354.02299     -278.12879     -353.94254      0              4150.3494      46.623979      20.047001      20.857         19494.432      4587.1819      3293.9294      4569.9369      284.65908     -1857.5599      2283.2267    
   7726500   258.22043     -354.15918     -278.49214     -354.07934      0              4505.0545      46.303071      20.047001      20.857         19360.254      2953.8324      5257.9996      5303.3316     -697.93114      1052.6018     -750.57579    
   7727000   263.86748     -355.15134     -277.82952     -355.05512      0              4415.6175      46.391279      20.047001      20.857         19397.136      3046.5995      5621.9634      4578.2895     -1313.8348      94.481319     -305.49133    
   7727500   263.31194     -353.18987     -276.03085     -353.14239      0              4438.0222      46.492693      20.047001      20.857         19439.539      6338.069       4340.8572      2635.1403     -613.22697     -259.84723     -149.73449    
   7728000   263.87911     -354.15631     -276.83109     -354.07762      0              3907.5167      46.455636      20.047001      20.857         19424.044      3604.3481      5295.1084      2823.0937     -1197.0193      290.74985     -214.54479    
   7728500   265.31002     -353.78932     -276.04479     -353.73606      0              4725.1433      46.190674      20.047001      20.857         19313.258      5827.2912      1755.6148      6592.5239      119.29337      266.39885     -1354.7246    
   7729000   262.7442      -353.19404     -276.20138     -353.12039      0              2922.0512      46.207062      20.047001      20.857         19320.111      3898.6109      2334.3841      2533.1586      674.85752      910.5884      -487.12559    
   7729500   260.86148     -352.23217     -275.79121     -352.18538      0              5130.0789      46.53866       20.047001      20.857         19458.758      6597.3787      5154.2775      3638.5806     -906.49323      269.1195       1978.5676    
   7730000   260.70388     -353.62268     -277.22791     -353.5487       0              3137.6498      46.609891      20.047001      20.857         19488.542      3206.6177      3141.1544      3065.1772      299.8079      -306.79034      628.35794    
   7730500   263.10496     -353.40625     -276.30788     -353.32685      0              5940.6843      46.202394      20.047001      20.857         19318.159      8746.5055      3825.9514      5249.5959      126.94474     -484.8107       3159.2856    
   7731000   265.48823     -356.29555     -278.49881     -356.22812      0              6277.5931      46.224365      20.047001      20.857         19327.346      5093.5734      5808.7091      7930.4969      622.63557     -92.350978     -218.58675    
[...]
  11373500   257.00427     -351.72514     -276.41447     -351.72386      0              2428.5409      46.54452       20.047001      20.857         19461.209      3584.467       46.334267      3654.8215      396.11842     -133.99507     -67.548553    
  11374000   255.20584     -350.92668     -276.14301     -350.90394      0              5913.4886      46.632926      20.047001      20.857         19498.173      6571.7886      5889.6159      5279.0614      85.480182      703.72722     -134.41269    
  11374500   263.04193     -352.41976     -275.33986     -352.39927      0              2795.5893      46.632515      20.047001      20.857         19498.001      3748.9204      3127.5811      1510.2663     -715.77149      164.68059      2631.6998    
  11375000   258.50716     -352.02754     -276.27648     -352.04351      0              1717.7417      46.459079      20.047001      20.857         19425.484      3038.7262      2785.8285     -671.32954     -175.94064      607.77007      1396.7359    
  11375500   262.69577     -349.7019      -272.72344     -349.70541      0              5860.6136      46.354289      20.047001      20.857         19381.669      7350.591       5290.1743      4941.0755     -497.69663      1392.1067     -1119.9234    
  11376000   260.2354      -351.55531     -275.29781     -351.5636       0              5881.747       46.4513        20.047001      20.857         19422.231      7766.7999      4531.478       5346.9631      410.94863      727.62276     -242.37697    
  11376500   264.60087     -352.20863     -274.67191     -352.22233      0              3728.2598      46.647335      20.047001      20.857         19504.198      2603.391       4436.2644      4145.1242     -157.31814      1061.2851      136.41009    
  11377000   263.78041     -353.00183     -275.70553     -353.00133      0              6436.1302      46.475856      20.047001      20.857         19432.499      6522.0395      6736.1037      6050.2476     -1871.0666      510.95897     -775.98392    
  11377500   256.3857      -352.93003     -277.80062     -352.91489      0              5600.6479      46.046959      20.047001      20.857         19253.168      7666.0422      5686.8661      3449.0353     -802.77086     -186.844       -82.388626    
  11378000   260.4615      -353.07718     -276.75343     -353.09792      0              4790.263       46.207479      20.047001      20.857         19320.285      4882.267       5693.9599      3794.562      -534.36415      733.28897     -237.38715    
  11378500   265.96776     -351.26463     -273.32737     -351.28512      0              2989.3357      46.505912      20.047001      20.857         19445.066      491.73158      3412.4151      5063.8605     -722.81157      31.008846      1482.1616    
  11379000   260.49416     -353.05041     -276.71709     -353.07845      0              4741.9887      46.361275      20.047001      20.857         19384.59       6072.9483      3407.6512      4745.3665     -676.47851     -306.48109      287.43299    
  11379500   260.38656     -352.11286     -275.81107     -352.13611      0              6029.9658      46.140312      20.047001      20.857         19292.201      10087.753      3972.7202      4029.4241      132.97843     -591.84263      981.67884    
  11380000   257.20694     -352.01404     -276.64399     -352.01155      0              4397.1465      46.519152      20.047001      20.857         19450.602      4196.586       3935.8145      5059.0391      536.19622     -946.83674     -480.65943    
  11380500   259.50569     -353.81998     -277.77631     -353.8319       0              2482.9289      46.676113      20.047001      20.857         19516.231      4579.9556      1747.2199      1121.6111     -638.63681     -188.63225      41.20626     
  11381000   251.81501     -349.69122     -275.90118     -349.6921       0              4983.6891      46.375729      20.047001      20.857         19390.634      5460.2283      4065.4949      5425.3442     -1436.791      -569.18908     -1284.9035    
  11381500   260.37494     -349.14096     -272.84257     -349.164        0              4869.8826      46.241281      20.047001      20.857         19334.418      5997.6991      3355.5171      5256.4316     -1990.8097     -1188.1034      68.294709    
  11382000   259.42316     -351.20133     -275.18185     -351.22189      0              4060.1215      46.335518      20.047001      20.857         19373.82       6061.8366      3441.3286      2677.1992      752.78553      100.11241     -640.98477    
  11382500   263.15583     -349.19458     -272.0813      -349.21992      0              5182.4093      46.353283      20.047001      20.857         19381.249      5380.9764      5911.1395      4255.1121     -1777.3016      1751.2702      73.148731    
  11383000   259.93148     -351.38736     -275.21892     -351.37059      0              2422.413       46.216034      20.047001      20.857         19323.862      2563.8432      3411.7712      1291.6247      835.62386     -870.63194     -14.935813    
  11383500   258.78558     -348.39472     -272.56207     -348.39699      0              6673.7523      46.159892      20.047001      20.857         19300.388      7038.2939      5436.8342      7546.1288     -1052.9513     -139.18272     -917.3403     
  11384000   261.19577     -349.90868     -273.36976     -349.93213      0              4147.2306      46.414893      20.047001      20.857         19407.009      3182.1632      5413.599       3845.9296     -414.51952      507.34493     -646.84874    
  11384500   271.02669     -351.59857     -272.17887     -351.58056      0              4342.5874      46.253826      20.047001      20.857         19339.664      3698.9701      5809.1308      3519.6614      338.18583      1391.5288     -581.94521    
  11385000   261.94977     -350.23608     -273.47622     -350.21781      0              4842.8928      46.115834      20.047001      20.857         19281.966      4457.1314      5415.7253      4655.8216      525.6216       766.35918     -1161.5156    
  11385500   261.48065     -347.98587     -271.36348     -347.99862      0              4519.066       46.241895      20.047001      20.857         19334.675      4672.0709      3136.6531      5748.4739     -136.66699     -511.54437      1411.6543    
  11386000   267.17912     -352.30423     -274.01199     -352.27204      0              2388.6672      46.14665       20.047001      20.857         19294.851      2171.3015      2410.2485      2584.4517     -162.0615      -264.41068     -1091.7002    
  11386500   261.03267     -349.9242      -273.43308     -349.87198      0              6565.0394      46.10872       20.047001      20.857         19278.992      7371.0441      6551.5498      5772.5244      164.97532      603.83353      1682.362     
  11387000   255.58435     -353.68155     -278.78697     -353.68533      0              4168.3707      46.404933      20.047001      20.857         19402.844      6321.4203      498.07133      5685.6205      307.59592      145.14286      438.85623    
  11387500   261.86717     -352.72164     -275.98599     -352.74245      0              2899.0092      46.553634      20.047001      20.857         19465.019      1311.2123      4668.9679      2716.8474      195.51558      572.39103     -1262.5329    
  11388000   262.90753     -351.14308     -274.10257     -351.13856      0              5634.5541      46.181821      20.047001      20.857         19309.557      6431.1327      4869.4699      5603.0596     -474.37851     -918.39078     -313.12832    
  11388500   262.05791     -352.5861      -275.79455     -352.61161      0              5277.5733      45.889842      20.047001      20.857         19187.475      4331.2731      6860.9221      4640.5246     -171.57786      429.37684     -141.59162    
  11389000   261.71763     -354.98391     -278.29207     -355.00581      0              5685.8089      46.048405      20.047001      20.857         19253.773      6257.8274      5938.0327      4861.5665     -116.94543     -531.08669     -447.36914    
  11389500   261.73897     -354.61461     -277.91652     -354.58985      0              3019.2915      46.439359      20.047001      20.857         19417.239      2516.9002      3760.9616      2780.0126     -398.20422     -2057.4782      38.372361    
  11390000   262.04135     -354.03426     -277.24757     -354.018        0              4212.461       46.377675      20.047001      20.857         19391.447      3185.507       6397.3493      3054.5268     -1779.6147     -1052.9269     -2221.3368    
  11390500   255.48245     -351.21807     -276.35334     -351.24066      0              4025.9485      46.215315      20.047001      20.857         19323.561      4899.1886      3989.2902      3189.3667      552.24433     -152.48026      802.26096    
  11391000   259.83839     -353.05347     -276.91231     -353.02288      0              4352.5655      46.098392      20.047001      20.857         19274.673      6089.4232      4360.7351      2607.5382      690.92317     -954.22465     -40.207722    
  11391500   264.10087     -352.0122      -274.622       -352.00018      0              3274.5478      46.204549      20.047001      20.857         19319.06       3638.3579      2551.191       3634.0945     -1620.8786      97.475165      972.73595    
  11392000   259.65058     -352.74515     -276.65903     -352.73165      0              4072.0895      46.232545      20.047001      20.857         19330.766      3468.3297      4738.9173      4009.0215      190.02528     -379.93249      560.13986    
  11392500   253.71596     -352.44631     -278.09923     -352.45849      0              3474.6517      46.231396      20.047001      20.857         19330.285      6222.5017      2766.375       1435.0782     -2850.6932     -595.35763      652.01618    
  11393000   258.60767     -352.3137      -276.53319     -352.31621      0              5702.9581      46.487042      20.047001      20.857         19437.176      4597.1147      6433.6945      6078.065       42.473489     -1868.9591      699.67198    
  11393500   257.16501     -353.85373     -278.49596     -353.88849      0              5020.7216      46.590567      20.047001      20.857         19480.462      3252.2034      5567.839       6242.1225     -290.19276     -1694.8319     -535.50593    
  11394000   253.86231     -354.39932     -280.00935     -354.40075      0              4521.5399      46.23919       20.047001      20.857         19333.544      3464.386       7258.3976      2841.8362     -346.70549      3.0960239      413.80445    
  11394500   259.58531     -354.48776     -278.42077     -354.47229      0              5637.5156      45.928697      20.047001      20.857         19203.72       6278.7723      4955.7997      5677.9749     -863.22305      13.120362     -1842.9139    
  11395000   264.72174     -353.01537     -275.44323     -353.04217      0              4995.7669      46.083062      20.047001      20.857         19268.264      5848.4299      5308.7362      3830.1346      1072.1056      47.227884     -180.78805    
  11395500   257.03826     -351.84305     -276.52242     -351.84876      0              4984.1635      46.313629      20.047001      20.857         19364.668      5648.046       2295.8969      7008.5476     -1029.0567      160.4725      -98.828269    
  11396000   263.83652     -352.22728     -274.91454     -352.24127      0              4663.2735      46.032738      20.047001      20.857         19247.222      4605.7955      5866.6208      3517.4043     -1125.703      -281.19855     -2491.3461    
  11396500   262.7961      -354.03173     -277.02386     -354.02063      0              4534.0312      45.931458      20.047001      20.857         19204.875      7637.3864      3235.2305      2729.4768      1450.1087     -2778.3795     -29.927565    
  11397000   258.20784     -353.46609     -277.80273     -353.48236      0              6708.5169      46.263446      20.047001      20.857         19343.686      6235.4334      7844.6795      6045.4378     -1158.8649     -863.80338      1381.4952    
  11397500   265.68513     -354.48294     -276.6285      -354.47059      0              2564.5603      46.390014      20.047001      20.857         19396.607      2545.139       2527.5289      2621.0129      1833.6294     -1073.9656      465.89462    
  11398000   257.50412     -353.56623     -278.10909     -353.53245      0              2354.9072      46.244778      20.047001      20.857         19335.88       5037.2855      1548.4176      479.01857      530.73351     -661.70493      1120.3042    
  11398500   249.92731     -353.35323     -280.11635     -353.35252      0              7031.652       45.992253      20.047001      20.857         19230.295      7348.1586      6384.4841      7362.3134      185.23079     -2867.0994     -280.51416    
  11399000   257.85444     -356.87969     -281.31989     -356.85237      0              3670.3576      46.156052      20.047001      20.857         19298.782      4312.4469      5320.7011      1377.9248     -422.93609      1291.8209     -299.97358    
  11399500   263.37463     -355.11439     -277.937       -355.10122      0              6217.308       46.221551      20.047001      20.857         19326.169      5962.3109      5355.5014      7334.1116     -800.15617      616.07734      569.93263    
  11400000   263.64141     -352.90854     -275.65297     -352.92793      0              3208.9295      46.156325      20.047001      20.857         19298.897      1919.7395      4892.1103      2814.9388     -257.65931      521.32668      774.82925    
  11400500   267.00712     -354.9439      -276.70207     -354.94339      0              4699.8243      46.07673       20.047001      20.857         19265.616      4139.8316      6546.893       3412.7483     -1500.6662     -890.85776      849.53605    
  11401000   261.84538     -351.83373     -275.10445     -351.8157       0              5178.2634      46.112475      20.047001      20.857         19280.562      4301.823       6552.2406      4680.7266     -414.80481      587.07884     -61.0604      
  11401500   249.17147     -353.59791     -280.58251     -353.60649      0              2646.3595      46.225216      20.047001      20.857         19327.701      3768.8657      360.36603      3809.8468     -301.78342     -979.96884     -847.24542    
  11402000   258.92283     -349.2045      -273.33163     -349.19998      0              5925.524       46.036509      20.047001      20.857         19248.799      5717.7804      6545.0833      5513.7081      390.72299     -364.76165      2280.3947    
  11402500   258.59263     -351.40657     -275.63046     -351.40945      0              2719.0031      46.015572      20.047001      20.857         19240.045      1585.8619      5038.1013      1533.046      -1122.7304      1312.7075     -903.79476    
  11403000   260.42286     -353.47216     -277.15974     -353.45878      0              4270.85        45.87002       20.047001      20.857         19179.186      5681.7524      2940.7483      4190.0494      205.88621      940.69746      347.24622    
  11403500   263.66095     -353.13612     -275.87483     -353.11549      0              5817.2931      46.027386      20.047001      20.857         19244.984      7970.8546      6902.1152      2578.9095     -374.75812      1376.8008      584.76572    
  11404000   261.26417     -352.13602     -275.57706     -352.13722      0              3134.7163      46.343748      20.047001      20.857         19377.262      3740.7833      1691.8448      3971.5209     -92.602832     -312.41173     -19.820121    
  11404500   256.36186     -352.55111     -277.4287      -352.54249      0              4939.0247      46.27282       20.047001      20.857         19347.605      6530.6234      3324.3691      4962.0817      470.78254     -1174.7687     -954.02976    
  11405000   260.14538     -350.82118     -274.59007     -350.80903      0              6028.6861      45.899193      20.047001      20.857         19191.384      9183.6926      3161.506       5740.8598      1409.6746     -805.28045      368.55948    
  11405500   262.77253     -353.22737     -276.22641     -353.21564      0              4651.4002      45.934845      20.047001      20.857         19206.291      5158.8016      5530.0504      3265.3487     -551.73835      580.82315      213.56162    
  11406000   260.02702     -353.29595     -277.09951     -353.26819      0              5220.5508      46.134265      20.047001      20.857         19289.673      7806.7027      3634.0309      4220.9189     -605.86966      1131.1157      1089.017     
  11406500   267.49978     -351.65457     -273.26837     -351.66068      0              4693.5567      46.189697      20.047001      20.857         19312.85       5927.5038      3455.4127      4697.7536     -174.95535      641.14726     -0.75682662   
  11407000   259.16053     -352.81555     -276.87303     -352.84419      0              5720.8951      45.95751       20.047001      20.857         19215.768      5741.8219      5781.8576      5639.0057      920.91507     -545.9898      -1001.4756    
  11407500   252.68066     -350.54602     -276.50232     -350.55703      0              4578.8583      45.939715      20.047001      20.857         19208.328      3688.8218      5400.7045      4647.0487     -1250.8165     -516.32649      803.11913    
  11408000   262.69768     -349.78229     -272.80327     -349.81089      0              5099.1439      46.017489      20.047001      20.857         19240.846      3696.4956      5569.7998      6031.1363      505.32873     -1123.7278     -523.25231    
  11408500   259.33371     -350.62261     -274.62934     -350.65018      0              5157.8141      46.29805       20.047001      20.857         19358.155      5333.6708      3724.412       6415.3596      611.03355      211.38895     -971.85009    
  11409000   261.22879     -352.28895     -275.74036     -352.30419      0              4240.9556      46.150728      20.047001      20.857         19296.556      5264.3476      5041.0284      2417.4909     -880.75617      1912.1741     -260.09795    
WARNING: Wall time limit reached (../timer.cpp:193)
Loop time of 85801.7 on 4 procs for 3824000 steps with 2268 atoms

Performance: 1.925 ns/day, 12.465 hours/ns, 44.568 timesteps/s
967.2% CPU use with 4 MPI tasks x no OpenMP threads

MPI task timing breakdown:
Section |  min time  |  avg time  |  max time  |%varavg| %total
---------------------------------------------------------------
Pair    | 48143      | 48440      | 48657      |  86.3 | 56.46
Bond    | 0.45795    | 0.48118    | 0.50391    |   2.4 |  0.00
Neigh   | 1256.9     | 1279.6     | 1298.2     |  44.9 |  1.49
Comm    | 4843.9     | 5071.6     | 5392.3     | 324.8 |  5.91
Output  | 1288       | 1288       | 1288       |   0.1 |  1.50
Modify  | 29628      | 29711      | 29833      |  43.7 | 34.63
Other   |            | 11.02      |            |       |  0.01

Nlocal:            567 ave         580 max         554 min
Histogram: 1 0 1 0 0 0 0 1 0 1
Nghost:        3737.25 ave        3779 max        3705 min
Histogram: 1 1 0 0 0 0 1 0 0 1
Neighs:              0 ave           0 max           0 min
Histogram: 4 0 0 0 0 0 0 0 0 0
FullNghs:       142708 ave      146539 max      139457 min
Histogram: 1 1 0 0 0 0 1 0 0 1

Total # of neighbors = 570832
Ave neighs/atom = 251.68959
Ave special neighs/atom = 0
Neighbor list builds = 382400
Dangerous builds not checked

unfix		4
unfix		3
unfix		1

write_data	data.final.${pid}
write_data	data.final.0
System init for write_data ...
Generated 0 of 1 mixed pair_coeff terms from geometric mixing rule
write_restart	restart.lmp.${pid}
write_restart	restart.lmp.0
System init for write_restart ...
Generated 0 of 1 mixed pair_coeff terms from geometric mixing rule
Total wall time: 23:50:24
