LAMMPS (23 Jun 2022)
echo both

include		in.partitions
variable        pid world 0
include		in.temp
variable	temperature equal 260.0
variable        tempDamp equal 0.100 # this is 0.1 ps
include		in.pressure
variable        pressure equal 5066.25
variable        pressureDamp equal 1.0 #this is 1ps
include		in.seed
variable        seed world 745823

units           metal
atom_style	full
read_restart	restart.lmp.${pid}
read_restart	restart.lmp.0
Reading restart file ...
  restart file = 23 Jun 2022, LAMMPS = 23 Jun 2022
  restoring atom style full from restart
  orthogonal box = (0.60736917 0 0) to (46.84333 20.047001 20.857)
  4 by 1 by 1 MPI processor grid
Summary of lammps deepmd module ...
  >>> Info of deepmd-kit:
  installed to:       /u/sigbjobo/software/DEEPMD_FROM_SOURCE/deepmd-kit/install
  source:             v2.1.3
  source branch:       master
  source commit:      5a32c49
  source commit at:   2022-07-01 09:52:58 +0800
  surpport model ver.:1.1 
  build float prec:   double
  build with tf inc:  /u/sigbjobo/software/DEEPMD_FROM_SOURCE/tensorflow/install/include;/u/sigbjobo/software/DEEPMD_FROM_SOURCE/tensorflow/install/include
  build with tf lib:  /u/sigbjobo/software/DEEPMD_FROM_SOURCE/tensorflow/install/lib/libtensorflow_cc.so;/u/sigbjobo/software/DEEPMD_FROM_SOURCE/tensorflow/install/lib/libtensorflow_framework.so
  set tf intra_op_parallelism_threads: 0
  set tf inter_op_parallelism_threads: 0
  >>> Info of lammps module:
  use deepmd-kit at:  /u/sigbjobo/software/DEEPMD_FROM_SOURCE/deepmd-kit/install
  source:             v2.1.3
  source branch:      master
  source commit:      5a32c49
  source commit at:   2022-07-01 09:52:58 +0800
  build float prec:   double
  build with tf inc:  /u/sigbjobo/software/DEEPMD_FROM_SOURCE/tensorflow/install/include;/u/sigbjobo/software/DEEPMD_FROM_SOURCE/tensorflow/install/include
  build with tf lib:  /u/sigbjobo/software/DEEPMD_FROM_SOURCE/tensorflow/install/lib/libtensorflow_cc.so;/u/sigbjobo/software/DEEPMD_FROM_SOURCE/tensorflow/install/lib/libtensorflow_framework.so
  restoring pair style deepmd from restart
  2268 atoms
Finding 1-2 1-3 1-4 neighbors ...
  special bond factors lj:    0        0        0       
  special bond factors coul:  0        0        0       
     0 = max # of 1-2 neighbors
     0 = max # of 1-3 neighbors
     0 = max # of 1-4 neighbors
     1 = max # of special neighbors
  special bonds CPU = 0.000 seconds
  read_restart CPU = 0.007 seconds
include 	in.setup
variable	out_freq equal 500
variable	out_freq2 equal 1000
variable	out_freq3 equal 5000

timestep        0.0005

neigh_modify    delay 7 every 1

include         in.deepmd
# This is deepMD model

# create groups ###
#group ox type 2
#group hy type 1

mass 2 15.999
mass 1 1.008

pair_style      deepmd ../graph.pb
pair_coeff      * *

bond_style      none
angle_style     none
dihedral_style  none
improper_style  none
neigh_modify exclude none


neighbor        2.0 bin
neigh_modify    every 10 delay 0 check no

thermo          ${out_freq}
thermo          500
thermo_style 	custom step temp pe etotal epair emol press lx ly lz vol pxx pyy pzz pxy pxz pyz
#thermo_modify	flush yes
restart 	${out_freq} restart.lmp.${pid} restart2.lmp.${pid}
restart 	500 restart.lmp.${pid} restart2.lmp.${pid}
restart 	500 restart.lmp.0 restart2.lmp.${pid}
restart 	500 restart.lmp.0 restart2.lmp.0

include		in.dump
dump            myDump all atom ${out_freq3} dump.water.${pid}
dump            myDump all atom 5000 dump.water.${pid}
dump            myDump all atom 5000 dump.water.0
dump            myDump2 all dcd ${out_freq2} dump.dcd.${pid}
dump            myDump2 all dcd 1000 dump.dcd.${pid}
dump            myDump2 all dcd 1000 dump.dcd.0
dump_modify     myDump append yes
dump_modify     myDump2 append yes


timer           timeout 23:50:00 every 1000
New timer settings: style=normal  mode=nosync  timeout=23:50:00

fix             1 all plumed plumedfile plumed.dat outfile plumed.out
fix             3 all nph x ${pressure} ${pressure} ${pressureDamp}
fix             3 all nph x 5066.25 ${pressure} ${pressureDamp}
fix             3 all nph x 5066.25 5066.25 ${pressureDamp}
fix             3 all nph x 5066.25 5066.25 1
Resetting global fix info from restart file:
  fix style: nph, fix ID: 3
fix             4 all temp/csvr ${temperature} ${temperature} ${tempDamp} ${seed}
fix             4 all temp/csvr 260 ${temperature} ${tempDamp} ${seed}
fix             4 all temp/csvr 260 260 ${tempDamp} ${seed}
fix             4 all temp/csvr 260 260 0.1 ${seed}
fix             4 all temp/csvr 260 260 0.1 745823
Resetting global fix info from restart file:
  fix style: temp/csvr, fix ID: 4

run             40000000 upto

CITE-CITE-CITE-CITE-CITE-CITE-CITE-CITE-CITE-CITE-CITE-CITE-CITE

Your simulation uses code contributions which should be cited:

- USER-DEEPMD package:

@article{Wang_ComputPhysCommun_2018_v228_p178,
  author = {Wang, Han and Zhang, Linfeng and Han, Jiequn and E, Weinan},
  doi = {10.1016/j.cpc.2018.03.016},
  url = {https://doi.org/10.1016/j.cpc.2018.03.016},
  year = 2018,
  month = {jul},
  publisher = {Elsevier {BV}},
  volume = 228,
  journal = {Comput. Phys. Commun.},
  title = {{DeePMD-kit: A deep learning package for many-body potential energy representation and molecular dynamics}},
  pages = {178--184}
}

CITE-CITE-CITE-CITE-CITE-CITE-CITE-CITE-CITE-CITE-CITE-CITE-CITE

Generated 0 of 1 mixed pair_coeff terms from geometric mixing rule
All restart file global fix info was re-assigned
Neighbor list info ...
  update every 10 steps, delay 0 steps, check no
  max neighbors/atom: 2000, page size: 100000
  master list distance cutoff = 8
  ghost atom cutoff = 8
  binsize = 4, bins = 12 6 6
  1 neighbor lists, perpetual/occasional/extra = 1 0 0
  (1) pair deepmd, perpetual
      attributes: full, newton on
      pair build: full/bin
      stencil: full/bin/3d
      bin: standard
Per MPI rank memory allocation (min/avg/max) = 6.149 | 6.15 | 6.15 Mbytes
   Step          Temp          PotEng         TotEng         E_pair         E_mol          Press            Lx             Ly             Lz           Volume          Pxx            Pyy            Pzz            Pxy            Pxz            Pyz      
  38719500   262.71095     -355.12876     -278.14585     -355.12876      0              3638.9465      46.235961      20.047001      20.857         19332.194      4479.8977      2170.0563      4266.8855      746.85965     -67.358742      725.48441    
  38720000   254.93874     -353.2192      -278.5138      -353.17011      0              5503.2839      46.054704      20.047001      20.857         19256.407      4770.5837      5787.0203      5952.2478      825.01213      902.23942     -941.28357    
  38720500   272.02956     -354.92978     -275.21621     -354.88005      0              6327.739       45.935259      20.047001      20.857         19206.464      8165.7062      5837.9112      4979.5995      870.56671     -3.7514903     -779.04418    
  38721000   256.59696     -354.01502     -278.8237      -353.97901      0              4379.4256      45.998558      20.047001      20.857         19232.931      3892.4954      6155.1359      3090.6455      913.95311     -522.39937      575.90666    
  38721500   260.61682     -353.15384     -276.78458     -353.10324      0              3085.6418      45.877038      20.047001      20.857         19182.121      3386.8277      2696.4024      3173.6955      434.97916      411.59103      64.41753     
  38722000   264.40721     -353.77306     -276.29309     -353.72285      0              4243.5278      45.798009      20.047001      20.857         19149.077      4793.421       3347.9555      4589.207      -956.72271     -60.520251      1079.513     
  38722500   259.06143     -352.22171     -276.30823     -352.1525       0              3841.4181      45.909574      20.047001      20.857         19195.725      5069.1047      3791.0199      2664.1296     -1851.7691      1706.9753      488.71184    
  38723000   257.38698     -355.20834     -279.78553     -355.16256      0              5852.9205      46.107497      20.047001      20.857         19278.481      3646.6101      7975.9692      5936.1821     -186.80492      548.64259      830.45878    
  38723500   260.55212     -353.56878     -277.21847     -353.52431      0              4769.6201      46.017336      20.047001      20.857         19240.782      4669.306       5883.8269      3755.7275     -1394.1466      1232.8534      1004.6525    
  38724000   263.47394     -356.29894     -279.09245     -356.28161      0              4916.5104      45.865954      20.047001      20.857         19177.487      3732.6612      6823.5123      4193.3577     -199.60552      330.06413     -1049.8927    
  38724500   271.76646     -354.04916     -274.41268     -354.02481      0              4954.2242      45.977103      20.047001      20.857         19223.96       6669.1637      2817.4691      5376.0399     -52.380639     -61.474489      1031.7395    
  38725000   267.95348     -352.31857     -273.79943     -352.26912      0              3325.7493      46.231964      20.047001      20.857         19330.523      3510.4046      3595.9034      2870.9397     -1304.4661      1646.9529      1149.6794    
  38725500   271.56255     -353.46346     -273.88674     -353.41373      0              5491.5574      46.27463       20.047001      20.857         19348.362      5637.68        4696.2304      6140.7619      416.53521      363.3092      -499.61502    
  38726000   255.14103     -352.1504      -277.38572     -352.10492      0              5236.3892      45.89972       20.047001      20.857         19191.605      5454.7152      5591.1611      4663.2915     -712.87645     -234.64757      855.60216    
  38726500   255.22569     -353.99528     -279.20579     -353.93207      0              5151.7984      45.521131      20.047001      20.857         19033.309      7182.3373      5555.9489      2717.1089      93.928489     -1032.9659     -417.55998    
  38727000   260.66046     -353.75363     -277.37158     -353.69071      0              3508.2477      45.973283      20.047001      20.857         19222.363      5569.4898      2913.2873      2041.9659     -75.512287      395.87984      239.81955    
  38727500   251.33955     -351.87246     -278.22174     -351.84985      0              3729.2093      46.254496      20.047001      20.857         19339.944      2556.7611      4931.5881      3699.2787     -692.91475      1126.7027     -388.83803    
  38728000   262.32715     -353.6109      -276.74045     -353.55926      0              3135.6183      46.000874      20.047001      20.857         19233.899      4731.5187      2165.4494      2509.8866      454.25559      1892.0073     -1056.4314    
  38728500   261.99672     -353.56904     -276.79542     -353.50937      0              5739.2983      45.979721      20.047001      20.857         19225.055      3959.8887      7685.925       5572.0813      1516.1637      284.25193      196.05788    
  38729000   263.46494     -354.31605     -277.1122      -354.25357      0              2207.6293      46.146189      20.047001      20.857         19294.659      2035.7115      2838.4107      1748.7656      629.74087      1166.0764     -2738.59      
  38729500   258.62674     -354.82828     -279.04218     -354.77147      0              3149.1729      45.993532      20.047001      20.857         19230.83       2166.3088      2766.8561      4514.3539     -489.04012      587.09967      290.35444    
  38730000   259.80306     -354.46742     -278.33662     -354.409        0              4614.5446      45.839709      20.047001      20.857         19166.513      6737.6783      5773.1817      1332.7738      142.1211       247.37439     -1116.1947    
  38730500   262.64219     -351.56657     -274.6038      -351.51848      0              4105.1588      46.059808      20.047001      20.857         19258.541      2780.8647      4637.5285      4897.0832     -1666.9729     -549.75355      550.21242    
  38731000   262.73766     -351.78554     -274.7948      -351.75493      0              4571.2514      46.241473      20.047001      20.857         19334.498      6367.7659      2508.9695      4837.0187     -1181.4494     -833.19324      35.703362    
  38731500   265.44791     -354.57386     -276.78893     -354.50771      0              4941.7795      46.028141      20.047001      20.857         19245.3        4882.7721      3200.1402      6742.4263      1052.6574      1852.2362     -233.92914    
  38732000   257.53463     -351.63288     -276.1668      -351.59126      0              5710.776       45.928819      20.047001      20.857         19203.772      4507.9538      4209.7432      8414.6311      150.01149      287.52248     -234.51194    
  38732500   253.08365     -349.70155     -275.53975     -349.68003      0              5884.8828      45.969485      20.047001      20.857         19220.775      7473.0931      6030.308       4151.2474     -15.595471     -1328.8452     -2070.6321    
  38733000   257.67863     -351.29189     -275.78361     -351.24643      0              3284.7272      46.21775       20.047001      20.857         19324.58       3207.7335      2653.8894      3992.5586     -1214.2136      2366.4364     -2018.8591    
  38733500   260.71374     -351.70649     -275.30882     -351.7019       0              6086.1506      46.242337      20.047001      20.857         19334.86       7432.4507      5790.6815      5035.3195     -392.20942     -573.72823     -1026.9947    
  38734000   269.46154     -355.20106     -276.24001     -355.19323      0              4799.9352      46.042598      20.047001      20.857         19251.345      5079.3886      4454.5487      4865.8684     -166.07951     -925.31818     -1523.1437    
  38734500   262.3796      -355.94681     -279.061       -355.89364      0              3063.5232      46.182597      20.047001      20.857         19309.881      3670.02        3190.3477      2330.202      -132.81126      1647.4936      366.5215     
  38735000   257.61435     -353.94507     -278.45563     -353.89744      0              5299.6208      46.302619      20.047001      20.857         19360.065      7750.3356      3554.0713      4594.4554     -886.01586     -600.06564     -1438.9587    
  38735500   259.58097     -352.99885     -276.93312     -352.9811       0              4091.066       46.342792      20.047001      20.857         19376.862      3854.7805      3575.5967      4842.821       287.23862      271.65386      139.48515    
  38736000   262.54446     -352.73753     -275.80341     -352.68671      0              3808.5195      45.982253      20.047001      20.857         19226.114      4311.7883      4953.3569      2160.4134     -495.79239      44.512893     -1156.1648    
  38736500   261.65598     -353.57225     -276.89847     -353.50596      0              4413.6376      46.10307       20.047001      20.857         19276.63       4036.9248      5899.5776      3304.4102      410.706        2089.9071      2295.6531    
  38737000   262.47861     -354.94347     -278.02864     -354.87769      0              4475.7816      46.697034      20.047001      20.857         19524.978      5173.1315      2440.2247      5813.9887      555.19467      1396.2965      486.64875    
  38737500   260.46501     -350.53107     -274.20629     -350.50043      0              5861.7778      46.504307      20.047001      20.857         19444.395      5436.3154      5921.5356      6227.4825     -578.66665     -929.51284      1141.2441    
  38738000   268.83288     -356.60072     -277.82388     -356.57068      0              6584.2834      46.080845      20.047001      20.857         19267.337      6179.2666      7726.848       5846.7355      23.089317     -652.50099     -671.57073    
  38738500   259.38653     -352.32726     -276.31851     -352.2958       0              6801.4167      45.989924      20.047001      20.857         19229.321      5263.0589      8348.8797      6792.3115     -379.70332     -1053.4516      936.48002    
  38739000   256.83944     -351.41671     -276.15435     -351.37053      0              5636.0994      46.186623      20.047001      20.857         19311.565      6796.2487      4948.7293      5163.3203      1413.6254      857.86859     -446.71051    
  38739500   262.44385     -351.97272     -275.06808     -351.93514      0              4441.9926      46.356508      20.047001      20.857         19382.597      3952.9775      6164.5584      3208.442      -617.60871      311.54492     -1837.482     
  38740000   255.31349     -352.21255     -277.39733     -352.14298      0              6982.1011      46.221335      20.047001      20.857         19326.079      7882.6956      6999.8281      6063.7797      515.60158      1559.4856      985.78469    
  38740500   251.98348     -353.63942     -279.80001     -353.5901       0              3329.3581      46.20235       20.047001      20.857         19318.14       6459.2541      1490.1138      2038.7062      603.7649      -545.67331      245.85749    
  38741000   264.35503     -355.44065     -277.97597     -355.42452      0              5192.8405      46.114051      20.047001      20.857         19281.221      5888.0035      4140.3427      5550.1753     -387.61215      1315.2064     -596.3105     
  38741500   257.54236     -352.68831     -277.21997     -352.68001      0              6135.0213      46.18507       20.047001      20.857         19310.915      5392.4031      5307.6322      7705.0286      1121.9453      1038.4008      804.808      
  38742000   259.20346     -353.17982     -277.22472     -353.19301      0              5221.4117      46.514894      20.047001      20.857         19448.821      5924.4606      3769.6085      5970.1659     -1237.535      -680.06757     -918.17384    
  38742500   263.16859     -352.50385     -275.38684     -352.48229      0              3695.4735      46.513555      20.047001      20.857         19448.262      3687.364       5375.8913      2023.1651      137.08754     -512.83128      1719.9171    
  38743000   268.8042      -352.35932     -273.59089     -352.34085      0              4606.9899      46.120715      20.047001      20.857         19284.007      5493.1         3607.6921      4720.1776     -77.502601     -973.02746      209.50551    
  38743500   269.50237     -353.6591      -274.68608     -353.59252      0              4750.9595      46.06369       20.047001      20.857         19260.164      5329.1702      4482.1913      4441.5168      374.49107     -1127.2343     -359.33896    
  38744000   256.32341     -353.35372     -278.24257     -353.32377      0              7229.2269      46.408432      20.047001      20.857         19404.308      7561.6251      6680.1663      7445.8894     -174.23644     -806.551        694.11221    
  38744500   249.67047     -352.48642     -279.3248      -352.43554      0              4619.7078      46.49121       20.047001      20.857         19438.919      5369.3031      5423.4426      3066.3777      143.93149      1423.0149      891.21241    
  38745000   256.11739     -352.19088     -277.1401      -352.16826      0              5086.1398      46.155812      20.047001      20.857         19298.682      5337.4377      2854.9757      7066.006      -413.04925     -867.30339     -149.81796    
  38745500   256.32393     -353.9662      -278.85489     -353.92436      0              3141.0006      46.147302      20.047001      20.857         19295.124      1375.6993      5598.2549      2449.0476     -1397.8419     -65.891803      426.48061    
  38746000   268.88182     -351.20718     -272.416       -351.15756      0              5557.7859      46.544904      20.047001      20.857         19461.369      4848.717       7162.0458      4662.595      -600.99513     -2055.3723     -822.11988    
  38746500   257.25815     -350.42595     -275.04089     -350.43538      0              2114.3506      46.57589       20.047001      20.857         19474.325      234.38074      4352.0179      1756.6533      502.61416     -702.89443      263.794      
  38747000   256.70757     -349.59228     -274.36855     -349.58552      0              4931.3733      46.364091      20.047001      20.857         19385.768      4832.0315      5102.9164      4859.172      -1181.8097      373.89493      463.38467    
  38747500   261.8843      -355.15927     -278.4186      -355.10765      0              5176.6472      46.279808      20.047001      20.857         19350.527      6693.1923      6594.4903      2242.2589      537.77113     -1221.2638     -679.34783    
  38748000   260.82606     -353.02303     -276.59245     -353.00982      0              3269.5508      46.337047      20.047001      20.857         19374.46       2120.1061      3632.2383      4056.3081      488.913        712.1914       761.59794    
  38748500   259.0753      -353.75316     -277.83561     -353.71349      0              4157.9007      46.304955      20.047001      20.857         19361.042      7118.5705      2553.1124      2802.0192      245.84953     -616.83418      630.8603     
  38749000   259.77684     -351.01065     -274.88752     -350.96336      0              5713.2936      46.346971      20.047001      20.857         19378.609      5858.0276      7180.1966      4101.6566      269.5362       661.61955     -887.18144    
  38749500   264.92959     -352.44659     -274.81355     -352.42465      0              4907.2313      46.272407      20.047001      20.857         19347.433      5599.2747      4830.7204      4291.6987     -191.73073     -980.56739      683.91222    
  38750000   263.2072      -353.06523     -275.9369      -353.02025      0              3777.131       46.461191      20.047001      20.857         19426.367      2668.8587      4626.6389      4035.8955      914.08753      567.88374     -1407.039     
  38750500   258.34954     -351.80814     -276.10326     -351.81428      0              6116.1358      46.507897      20.047001      20.857         19445.896      6326.7836      6053.9653      5967.6583     -380.8465       838.97501     -348.18284    
  38751000   257.96855     -353.22306     -277.62983     -353.18675      0              4389.7259      46.48169       20.047001      20.857         19434.938      7103.1485      3076.2148      2989.8146      481.14266      514.48336     -1508.4973    
  38751500   263.68513     -352.48852     -275.22014     -352.41251      0              3954.4209      46.342466      20.047001      20.857         19376.726      4834.7501      2671.6638      4356.8488      830.96302     -584.91684     -664.66972    
  38752000   260.22033     -352.40606     -276.15298     -352.37082      0              5535.6883      46.516218      20.047001      20.857         19449.375      6602.043       6611.1824      3393.8394     -608.13432     -1553.5301      1554.6809    
  38752500   256.8524      -353.38612     -278.11995     -353.36084      0              4543.8689      46.687518      20.047001      20.857         19520.999      4554.3625      4641.3851      4435.8593      486.25343      609.92127      491.3649     
  38753000   256.98958     -349.95975     -274.65339     -349.943        0              5688.895       46.436948      20.047001      20.857         19416.23       5053.0244      7023.2503      4990.4102      207.65423     -509.48394     -1126.7544    
  38753500   259.89666     -348.03721     -271.87897     -348.03056      0              5114.277       46.162556      20.047001      20.857         19301.502      7057.5253      4012.9952      4272.3107      29.30706       147.90512     -82.68592     
  38754000   264.43818     -350.64354     -273.15449     -350.61341      0              5249.2014      46.278194      20.047001      20.857         19349.852      3917.7835      5065.7013      6764.1194      880.24503     -1231.0693      217.03381    
  38754500   261.0462      -351.83893     -275.34384     -351.78278      0              3653.7241      46.38709       20.047001      20.857         19395.384      3810.2223      2363.4954      4787.4546     -238.46196      244.02099      1253.0876    
  38755000   261.95533     -352.05313     -275.29164     -352.0257       0              5152.2466      46.380265      20.047001      20.857         19392.53       3714.6645      5280.6848      6461.3905     -302.74608     -83.241683      1463.5633    
  38755500   262.14702     -350.79455     -273.97689     -350.74856      0              4744.7469      46.096426      20.047001      20.857         19273.852      4682.694       6105.8439      3445.7029      1169.7259     -1059.5264     -234.15225    
  38756000   261.29586     -349.53599     -272.96775     -349.48744      0              7115.0046      46.013252      20.047001      20.857         19239.075      9505.9847      5161.0823      6677.947       519.84201     -1298.9727      759.35999    
  38756500   253.48023     -353.72417     -279.44616     -353.66775      0              5007.7596      46.323861      20.047001      20.857         19368.947      6538.6575      3851.1472      4633.4741      457.14456      526.49153     -53.683374    
  38757000   259.55133     -352.25944     -276.2024      -352.21119      0              5460.303       46.230141      20.047001      20.857         19329.76       5345.3404      5346.3192      5689.2494      175.69246      130.0263      -2850.4305    
  38757500   253.10438     -351.53351     -277.36564     -351.50206      0              6443.1715      46.11569       20.047001      20.857         19281.906      7852.3784      4882.843       6594.2931     -382.53532      0.60452748     1898.4212    
  38758000   256.2253      -351.73734     -276.65493     -351.68225      0              5242.2715      45.80982       20.047001      20.857         19154.016      5179.4065      5212.1571      5335.251      -2161.6623      1360.0945     -2517.5284    
  38758500   255.18887     -351.18598     -276.40729     -351.14708      0              7218.1402      45.73879       20.047001      20.857         19124.317      5361.1342      8189.0038      8104.2827     -16.301502     -1145.2337     -473.89668    
  38759000   258.18358     -354.76785     -279.1116      -354.74106      0              5492.4817      45.986637      20.047001      20.857         19227.946      6696.9824      6068.8537      3711.609       216.18987      815.54824     -749.66102    
  38759500   257.68241     -352.14413     -276.63475     -352.09509      0              5011.344       46.213538      20.047001      20.857         19322.819      3760.8387      3899.9002      7373.2932      116.46743     -2894.637      -350.54104    
  38760000   259.77038     -353.63087     -277.50964     -353.60546      0              6122.1038      46.163947      20.047001      20.857         19302.083      4823.0431      6410.3382      7132.93        2209.7245     -7.7356343     -550.75736    
  38760500   255.52743     -352.9459      -278.068       -352.916        0              5478.9534      45.879036      20.047001      20.857         19182.956      8137.9093      3243.0325      5055.9184     -1392.2688      664.60693      283.95665    
  38761000   259.31328     -354.16196     -278.17468     -354.13435      0              5110.6525      46.096743      20.047001      20.857         19273.984      5695.8776      4563.0317      5073.0481      532.25022      3115.3153      111.38599    
  38761500   262.63598     -351.35737     -274.39643     -351.32741      0              3129.0408      46.353187      20.047001      20.857         19381.208      2553.5398      4018.1577      2815.4248      1612.5336     -797.6544      -1326.7882    
  38762000   258.3384      -354.90565     -279.20403     -354.85913      0              3959.5908      46.345108      20.047001      20.857         19377.83       4743.271       4396.212       2739.2893      423.84968      722.83912      46.518142    
  38762500   258.35501     -349.65652     -273.95004     -349.62597      0              4872.4087      46.261946      20.047001      20.857         19343.059      4113.5313      6505.2592      3998.4357      563.80743     -122.73433      2166.0425    
  38763000   255.36372     -350.30652     -275.47659     -350.30987      0              4804.3405      46.304956      20.047001      20.857         19361.042      5180.9907      5449.5456      3782.4853      145.97164     -684.91681      688.63183    
  38763500   257.44455     -352.80887     -277.36919     -352.78358      0              4749.7619      46.341077      20.047001      20.857         19376.145      7443.4626      4392.6393      2413.1839      1368.673      -0.10174421     478.72718    
  38764000   266.24479     -352.59638     -274.57794     -352.56714      0              6684.7409      45.884475      20.047001      20.857         19185.231      9111.9402      5282.5767      5659.7058      1051.8499      672.03733      591.61185    
  38764500   262.48469     -354.24575     -277.32914     -354.18349      0              6310.3367      45.93398       20.047001      20.857         19205.929      5731.8164      6393.234       6805.9596     -582.00016     -611.266       -564.86606    
  38765000   246.35042     -355.10589     -282.91714     -355.0597       0              1635.9864      46.548611      20.047001      20.857         19462.919      1275.2542      918.72253      2713.9824      902.02395     -87.758243      1817.0511    
  38765500   258.69268     -353.22109     -277.41566     -353.1588       0              7264.9286      46.267364      20.047001      20.857         19345.324      8157.8755      7272.5964      6364.3139     -561.31554      388.00949      745.13989    
  38766000   255.48433     -353.44207     -278.57679     -353.38381      0              5071.2515      46.037223      20.047001      20.857         19249.097      5303.0005      4489.5492      5421.2049     -157.03895      229.41185     -1.6727478    
  38766500   254.62597     -353.1536      -278.53985     -353.13409      0              3539.0021      46.202404      20.047001      20.857         19318.163      3368.7121      3372.4873      3875.807      -882.26867     -594.2027      -699.39621    
  38767000   267.08177     -353.80593     -275.54222     -353.79264      0              4084.8466      46.368521      20.047001      20.857         19387.62       6369.483       2723.7795      3161.2773     -2521.4608     -481.95276     -277.1511     
  38767500   259.23603     -352.42597     -276.46133     -352.38524      0              5602.1265      46.38237       20.047001      20.857         19393.411      6770.7335      5845.5855      4190.0604     -634.00455     -465.70503      457.72867    
  38768000   253.85804     -353.93743     -279.54872     -353.88424      0              3229.8369      46.432875      20.047001      20.857         19414.528      4468.4218      3099.2347      2121.8541      193.75317      361.87914      549.36379    
  38768500   258.96902     -354.16663     -278.28023     -354.09502      0              4857.9826      46.208801      20.047001      20.857         19320.838      5233.5261      5523.9824      3816.4393     -997.15125     -256.45834      675.318      
  38769000   261.20499     -353.05255     -276.51094     -352.98392      0              5148.404       46.179221      20.047001      20.857         19308.47       5877.5979      3160.7267      6406.8873      574.82508     -35.157156      333.64433    
  38769500   257.26288     -355.7002      -280.31375     -355.66955      0              5688.8787      46.100861      20.047001      20.857         19275.706      4506.1434      5557.7842      7002.7085     -299.6032      -374.93047     -12.090648    
  38770000   253.85531     -352.41079     -278.02287     -352.38906      0              5953.1137      45.999586      20.047001      20.857         19233.361      7666.3918      4970.593       5222.3563      1050.5603     -1065.1688     -414.59061    
  38770500   267.03519     -353.71513     -275.46507     -353.67807      0              4451.9797      45.80883       20.047001      20.857         19153.602      7016.7833      2626.4748      3712.681      -613.9494      -172.16774     -666.42015    
  38771000   262.69804     -354.42454     -277.44542     -354.40483      0              4225.8434      46.015264      20.047001      20.857         19239.916      3835.7561      7561.9259      1279.8482     -1112.0037      1142.0733     -404.00902    
  38771500   265.6906      -354.45076     -276.59471     -354.40212      0              4618.695       46.357934      20.047001      20.857         19383.193      6484.9614      4051.4765      3319.6471     -1733.1723     -702.54796      2235.53      
  38772000   268.54744     -354.93723     -276.24404     -354.90136      0              5418.4779      46.255913      20.047001      20.857         19340.536      4979.4415      4204.7846      7071.2074     -1571.3677     -1793.7102     -2100.4946    
  38772500   264.02006     -352.33691     -274.97038     -352.26931      0              5895.029       45.859592      20.047001      20.857         19174.826      6603.3729      5365.56        5716.1542      582.37589     -871.68392     -279.739      
  38773000   262.64878     -355.6091      -278.64441     -355.54034      0              5463.6485      46.116466      20.047001      20.857         19282.231      3392.0243      6089.3568      6909.5643      848.93821      694.77795      1800.8883    
  38773500   257.11899     -354.60154     -279.25726     -354.54958      0              2418.7051      46.299285      20.047001      20.857         19358.671      1794.6718      2595.8253      2865.6182     -154.62621      342.48949     -1472.1355    
  38774000   267.2875      -354.94433     -276.62034     -354.91068      0              4539.4623      46.049018      20.047001      20.857         19254.029      2773.529       4643.6556      6201.2024      790.51023     -1471.3813     -1421.7813    
  38774500   263.95337     -356.60027     -279.25329     -356.57973      0              5238.4601      46.102236      20.047001      20.857         19276.281      6109.364       3527.021       6078.9953      571.14498     -1605.6981     -1761.2595    
  38775000   255.94195     -354.17825     -279.17888     -354.16735      0              2494.9495      46.538412      20.047001      20.857         19458.655      2511.9143      473.29343      4499.6407     -592.76665      1862.3413      629.9437     
  38775500   250.50614     -355.59966     -282.19316     -355.56372      0              5042.9938      46.601432      20.047001      20.857         19485.005      4483.799       6657.0699      3988.1124     -556.04635     -1152.5721     -684.11934    
  38776000   255.27551     -355.07277     -280.26868     -354.99877      0              8823.3388      46.109876      20.047001      20.857         19279.475      7267.036       10219.267      8983.7139     -1089.4043     -212.61453      540.39819    
  38776500   258.22297     -353.63318     -277.96539     -353.63094      0              5688.71        45.820569      20.047001      20.857         19158.51       9046.9294      4147.1164      3872.0843      363.59189      1446.8744      116.48235    
  38777000   267.20111     -354.9469      -276.64822     -354.9087       0              4040.6665      46.119443      20.047001      20.857         19283.476      3830.6541      4320.9567      3970.3888     -2648.1309      412.97256      1716.3759    
  38777500   262.99267     -355.43647     -278.37101     -355.39758      0              4516.2567      46.358802      20.047001      20.857         19383.556      5069.439       4441.99        4037.341       453.50977      567.67499      524.73524    
  38778000   266.78064     -353.01889     -274.84343     -352.96592      0              5379.6601      46.367562      20.047001      20.857         19387.219      5483.5152      3787.9354      6867.5298     -1210.6818      1870.6962      619.43144    
  38778500   266.03423     -353.06565     -275.10891     -353.00135      0              5283.1255      46.259845      20.047001      20.857         19342.18       5981.4084      5013.1877      4854.7805      9.6828977     -92.343161      1103.389     
  38779000   265.60804     -352.14308     -274.31122     -352.11117      0              3841.201       46.158416      20.047001      20.857         19299.771      5533.2537      3832.1522      2158.197       183.02277     -537.4865       222.96897    
  38779500   262.25431     -355.95131     -279.10221     -355.92072      0              3644.0152      46.312354      20.047001      20.857         19364.135      3658.5755      2147.9199      5125.5501     -127.98678      558.30521     -698.43338    
  38780000   265.64766     -352.72403     -274.88057     -352.65932      0              5844.8242      46.053756      20.047001      20.857         19256.01       7917.7961      4352.4685      5264.2081     -146.81687     -385.18819     -527.12486    
  38780500   261.44907     -353.27902     -276.66588     -353.23163      0              6876.8751      45.921238      20.047001      20.857         19200.602      5455.6362      7487.2288      7687.7602     -11.436797     -807.92139     -482.84846    
  38781000   253.54694     -354.31978     -280.02222     -354.31371      0              6840.7757      46.256719      20.047001      20.857         19340.873      9040.94        6414.0674      5067.3197     -232.78444      98.344444      539.70247    
  38781500   253.39441     -352.69905     -278.44619     -352.66874      0              4478.6495      46.281459      20.047001      20.857         19351.218      5261.41        4642.862       3531.6767     -1293.8354     -523.71359      378.95462    
  38782000   260.37586     -353.93268     -277.63402     -353.9176       0              5769.7835      46.066263      20.047001      20.857         19261.24       6401.1452      6661.1733      4247.032       393.00259     -624.58356     -766.26493    
  38782500   266.95364     -353.00456     -274.7784      -352.9995       0              4622.3365      46.235184      20.047001      20.857         19331.869      6225.808       2360.5387      5280.6628     -1298.8175      768.32943      222.62307    
  38783000   255.97287     -353.27296     -278.26452     -353.23888      0              4358.181       46.333912      20.047001      20.857         19373.149      5591.4931      5169.7213      2313.3285     -1108.1047      298.01029     -3010.9104    
  38783500   261.61873     -354.98651     -278.32366     -354.9541       0              4246.3189      46.223014      20.047001      20.857         19326.78       5108.9156      3074.8374      4555.2037      946.8737      -1497.9882      2097.0359    
  38784000   256.87412     -355.30571     -280.03318     -355.28915      0              5443.464       46.022173      20.047001      20.857         19242.805      6634.1344      4650.3746      5045.883       4.6189414     -1099.0229      270.11904    
  38784500   262.46924     -355.10889     -278.19681     -355.07767      0              3045.9634      46.053223      20.047001      20.857         19255.788      5254.8811      2077.8814      1805.1278      1004.8193      624.01493      1394.19      
  38785000   261.51259     -353.77873     -277.14698     -353.75291      0              2646.0928      46.312461      20.047001      20.857         19364.18       2760.8961      2357.0929      2820.2896     -279.00215      1931.859       1676.757     
  38785500   254.83449     -354.02424     -279.34939     -353.97529      0              3244.1839      46.397999      20.047001      20.857         19399.945      3551.4064      4144.5338      2036.6114     -523.72551     -1908.4023      765.24201    
  38786000   256.73759     -356.48478     -281.25225     -356.4542       0              6982.4327      46.12805       20.047001      20.857         19287.074      8089.2906      6421.311       6436.6965      340.11601      1145.1515      1112.9578    
  38786500   253.88087     -356.25796     -281.86255     -356.23783      0              3002.7229      46.209076      20.047001      20.857         19320.953      5324.6932      669.4015       3014.0741     -14.055697      1754.5425      1863.6918    
  38787000   258.70003     -352.98691     -277.17932     -352.95142      0              1918.4382      46.262251      20.047001      20.857         19343.186      1950.9567      2364.4948      1439.8631     -1069.4341      2148.6427      1247.724     
  38787500   252.08713     -353.69264     -279.82286     -353.66335      0              3923.762       46.178031      20.047001      20.857         19307.972      5698.9437      3321.2054      2751.137      -458.10481      422.86388      274.59308    
  38788000   260.61011     -351.91807     -275.55077     -351.86985      0              4178.0487      46.201765      20.047001      20.857         19317.896      3419.4225      4573.0615      4541.6622     -358.77525     -426.83935      698.63773    
  38788500   270.07772     -352.81875     -273.67713     -352.79898      0              4609.1165      46.338174      20.047001      20.857         19374.931      4375.9393      5576.9041      3874.5061     -1113.0762      2012.6277      1435.7006    
  38789000   266.58899     -352.93721     -274.81791     -352.93568      0              1942.9009      46.429223      20.047001      20.857         19413.001      2476.1262      3364.4807     -11.904142     -1219.7883      1430.1126      562.73646    
  38789500   259.62681     -353.95232     -277.87316     -353.96306      0              5060.8644      46.318066      20.047001      20.857         19366.523      5563.9786      4047.791       5570.8236      16.701208     -465.59823      2429.746     
  38790000   257.72331     -355.72701     -280.20564     -355.75899      0              7256.1135      46.08032       20.047001      20.857         19267.117      7171.4761      5568.166       9028.6983     -1005.5487      665.726        1613.1699    
  38790500   258.94184     -354.03585     -278.15741     -354.0141       0              5881.8441      46.278952      20.047001      20.857         19350.169      6226.3323      5647.7803      5771.4197     -1798.9527      308.96588      270.42322    
  38791000   257.54202     -352.08217     -276.61393     -352.04952      0              3703.7109      46.401328      20.047001      20.857         19401.337      4277.1185      3334.7845      3499.2297      28.624569     -862.1328      -1710.4662    
  38791500   261.61437     -351.50901     -274.84743     -351.49347      0              3474.2734      46.461823      20.047001      20.857         19426.632      4035.9066      2592.5427      3794.3709     -897.28534     -652.05032     -586.79705    
  38792000   255.30148     -353.89112     -279.07942     -353.85799      0              6948.5221      46.292168      20.047001      20.857         19355.695      6638.5334      8100.8726      6106.1603     -653.66257     -358.76146      1734.7924    
  38792500   258.60368     -352.19952     -276.42017     -352.16613      0              4843.6114      45.873217      20.047001      20.857         19180.523      7223.7         3850.6641      3456.4699      859.78682     -255.82251      773.39095    
  38793000   256.43542     -352.61241     -277.46843     -352.59686      0              3488.3447      46.181572      20.047001      20.857         19309.453      4964.8504      2452.0403      3048.1433      799.35975     -243.73813     -940.49294    
  38793500   259.73974     -354.21919     -278.10694     -354.24905      0              3248.4233      46.521547      20.047001      20.857         19451.603      2324.6243      4184.9058      3235.7399     -532.1005      -812.08791      327.04672    
  38794000   265.19293     -355.38578     -277.67557     -355.37734      0              4269.6973      46.214485      20.047001      20.857         19323.214      4630.2074      3725.3791      4453.5054     -1225.5697      2405.4409     -304.15535    
  38794500   261.58125     -355.74988     -279.09801     -355.73508      0              4020.7895      46.089743      20.047001      20.857         19271.057      4368.4506      3597.6322      4096.2858      115.15903     -365.25001     -1743.9991    
  38795000   257.61898     -353.86903     -278.37823     -353.84006      0              6336.0144      46.177381      20.047001      20.857         19307.701      8623.1067      4491.8235      5893.1131     -258.00888      361.45945      553.34602    
  38795500   252.93596     -352.74957     -278.63105     -352.73713      0              5391.5879      46.336166      20.047001      20.857         19374.092      5670.6291      3935.5435      6568.591       514.89083     -974.15906      71.533316    
  38796000   263.50731     -354.54303     -277.32676     -354.52509      0              5967.7371      46.211661      20.047001      20.857         19322.034      7989.3925      3702.7452      6211.0736      300.15255      228.3761       1080.4145    
  38796500   259.58041     -350.65707     -274.59151     -350.66858      0              5097.1916      46.279853      20.047001      20.857         19350.546      7139.9418      3275.0129      4876.62       -430.45369     -70.283627     -220.56281    
  38797000   266.10511     -353.27325     -275.29573     -353.28842      0              3134.7617      46.474561      20.047001      20.857         19431.957      5316.7574      3758.0674      329.46031      906.35129     -192.08813      585.0578     
  38797500   256.58667     -352.02073     -276.83243     -352.01494      0              5178.1027      46.341156      20.047001      20.857         19376.178      2099.5877      6481.047       6953.6733      1292.3798      1259.1752      162.49946    
  38798000   262.16975     -352.93633     -276.11201     -352.96114      0              4463.0249      46.127458      20.047001      20.857         19286.826      6053.9224      4514.2375      2820.9148      1137.4099     -2751.4212     -1816.3096    
  38798500   255.83866     -352.92928     -277.96018     -352.89351      0              4641.9652      46.160951      20.047001      20.857         19300.831      4403.7546      3703.9221      5818.2188     -463.1133       731.70198     -1736.2546    
  38799000   253.29216     -351.54813     -277.32523     -351.58268      0              3480.7416      46.621117      20.047001      20.857         19493.235      3950.7201      3188.7996      3302.7052     -1144.9083      1987.9592      1090.2369    
  38799500   260.35083     -353.33724     -277.04592     -353.32968      0              4164.9074      46.48087       20.047001      20.857         19434.595      4185.1554      3948.0182      4361.5487      164.94842      22.325943     -99.443735    
  38800000   260.14895     -352.56855     -276.33639     -352.55831      0              5907.1326      46.011143      20.047001      20.857         19238.193      6545.5699      6768.6727      4407.1551     -643.29931      1209.0954     -1948.2843    
  38800500   258.49545     -353.09632     -277.34869     -353.06175      0              4917.8752      46.047544      20.047001      20.857         19253.413      5356.0564      3254.6602      6142.9092      1122.2536      854.43002     -100.50503    
  38801000   256.06405     -353.23866     -278.20351     -353.25331      0              2508.8726      46.444778      20.047001      20.857         19419.505      1944.7138      1895.8039      3686.1         341.45824     -80.858385     -853.48342    
  38801500   262.35146     -354.98782     -278.11025     -354.96842      0              4890.3631      46.364209      20.047001      20.857         19385.817      6577.4393      3914.355       4179.2949     -434.57175      368.22238      1005.6388    
  38802000   259.38331     -352.1933      -276.1855      -352.15281      0              3895.5182      46.041412      20.047001      20.857         19250.849      4748.3864      2484.5005      4453.6678      661.11099      2100.3441     -1346.875     
  38802500   256.81493     -354.57319     -279.318       -354.55769      0              2483.4782      46.306521      20.047001      20.857         19361.697      2901.8616      2381.9659      2166.6071      1395.5882      623.06915      968.09927    
  38803000   261.81681     -352.13621     -275.41531     -352.16607      0              3761.1241      46.539569      20.047001      20.857         19459.139      4739.1047      1715.4714      4828.7962     -1949.4728     -732.36502      921.52639    
  38803500   263.94176     -351.67657     -274.33299     -351.6575       0              3168.4657      46.211197      20.047001      20.857         19321.84       4548.7037      2578.9327      2377.7608     -713.16459     -1697.8287      1100.701     
  38804000   261.45219     -354.70922     -278.09517     -354.64481      0              3540.2313      46.07809       20.047001      20.857         19266.185      3652.3936      2979.7941      3988.5063     -1238.0676     -1277.3163     -321.44919    
  38804500   263.8438      -352.2096      -274.89473     -352.18641      0              4394.5489      46.268261      20.047001      20.857         19345.699      5349.7988      4216.6691      3617.1787      491.18302      672.20721     -268.19476    
  38805000   264.87479     -354.24721     -276.63022     -354.21635      0              3228.2389      46.293042      20.047001      20.857         19356.06       3936.9915      4284.178       1463.547       1176.4236     -1228.5734      146.57571    
  38805500   266.333       -351.77682     -273.73253     -351.74056      0              6315.2591      46.202348      20.047001      20.857         19318.14       6208.392       7579.6349      5157.7502     -478.79301      552.84622      1025.1547    
  38806000   264.59205     -351.74608     -274.21194     -351.72124      0              6355.3022      46.337281      20.047001      20.857         19374.558      7380.5083      6130.4068      5554.9915      2102.8668     -784.50649      1770.1136    
  38806500   267.25133     -356.72492     -278.41153     -356.68277      0              3263.1154      46.517698      20.047001      20.857         19449.994      5141.6487      1838.2251      2809.4724     -847.67247      893.55238     -62.262156    
  38807000   258.70094     -353.66174     -277.85389     -353.62724      0              3368.2168      46.2948        20.047001      20.857         19356.796      4987.5697      1982.2701      3134.8105      195.14911     -781.53551      687.73827    
  38807500   260.06986     -354.52005     -278.31107     -354.49255      0              2280.974       46.115384      20.047001      20.857         19281.778      3417.4584      706.99661      2718.4668      1079.1097      548.4716       639.32363    
  38808000   254.38907     -353.36506     -278.82073     -353.35258      0              3470.1663      46.434205      20.047001      20.857         19415.084      3086.9128      4432.3541      2891.2322     -245.89555      44.395524     -147.4341     
  38808500   259.65719     -355.86954     -279.78148     -355.86864      0              918.30867      46.472039      20.047001      20.857         19430.903      2003.3834      1634.0586     -882.51602     -1029.2986      2576.8877     -465.39744    
  38809000   258.84845     -354.62519     -278.77412     -354.61859      0              4221.1973      46.272361      20.047001      20.857         19347.413      5043.2642      4524.356       3095.9719     -1451.282       344.09419      1538.5425    
  38809500   258.65476     -352.13707     -276.34275     -352.13472      0              2142.4126      46.268303      20.047001      20.857         19345.717      4185.8275      461.99491      1779.4155     -256.90422      593.43413     -390.04058    
  38810000   262.90119     -353.60974     -276.57108     -353.6043       0              4487.2711      46.563763      20.047001      20.857         19469.254      8820.3783      3017.6166      1623.8184      787.55248     -448.42417     -704.97035    
  38810500   256.78115     -354.53215     -279.28686     -354.53636      0              2961.3892      46.883717      20.047001      20.857         19603.034      2341.5961      2233.1025      4309.469       449.98802     -445.86005     -36.785915    
  38811000   259.42567     -354.73137     -278.71115     -354.71295      0              3907.9591      46.479027      20.047001      20.857         19433.825      4310.2392      5522.9182      1890.7199      365.27215     -480.43688      64.244745    
  38811500   258.21799     -352.69161     -277.02528     -352.66808      0              6086.3451      46.23517       20.047001      20.857         19331.863      5502.5232      8058.7391      4697.7731      1831.5835      342.39662      356.77002    
  38812000   258.63097     -354.74909     -278.96175     -354.74107      0              4855.1458      46.281223      20.047001      20.857         19351.119      4378.3722      6143.6335      4043.4315      1635.4167     -1660.8123      1589.4606    
  38812500   260.41668     -355.61722     -279.30661     -355.57932      0              3456.59        46.373256      20.047001      20.857         19389.6        4204.3254      2201.0025      3964.4421     -1363.2998      1591.2843      276.59692    
  38813000   263.32989     -352.15916     -274.99488     -352.11864      0              5205.8524      46.31295       20.047001      20.857         19364.385      6618.1359      4544.9843      4454.437       341.58343     -802.47677     -555.7895     
  38813500   257.75683     -354.04194     -278.51075     -354.01844      0              4505.0302      46.573278      20.047001      20.857         19473.233      6626.4429      2622.3974      4266.2503      70.992447     -1086.4469      413.68805    
  38814000   257.6259      -353.93784     -278.44502     -353.89832      0              2898.2267      46.428272      20.047001      20.857         19412.603      2868.1442      1935.5129      3891.0229     -842.41194     -25.858353     -403.01335    
  38814500   261.57208     -354.44385     -277.79466     -354.4521       0              4956.6983      45.962563      20.047001      20.857         19217.881      4515.8812      5923.504       4430.7097     -992.66467     -835.68416      1936.9431    
  38815000   255.12228     -354.17402     -279.41484     -354.2044       0              5739.5075      46.016017      20.047001      20.857         19240.231      5251.155       6625.7278      5341.6397      766.64724     -561.72235     -2151.3996    
  38815500   263.4186      -353.71614     -276.52587     -353.73922      0              5230.4775      46.302852      20.047001      20.857         19360.163      3728.5326      5447.4069      6515.4931      185.16013     -211.28812     -1513.5424    
  38816000   263.34092     -354.02584     -276.85832     -354.01972      0              4134.199       46.346012      20.047001      20.857         19378.209      6223.5014      3401.7442      2777.3515      938.62425     -512.32407     -877.91969    
  38816500   262.13763     -353.81024     -276.99533     -353.7951       0              5446.6917      46.237893      20.047001      20.857         19333.002      5715.2836      3874.3984      6750.393      -150.61949      769.44699      496.92249    
  38817000   264.15555     -355.41276     -278.00654     -355.39659      0              6083.6988      46.254492      20.047001      20.857         19339.942      8606.988       4363.5876      5280.5208     -1333.4113      1259.2822      1521.2542    
  38817500   264.38155     -352.83463     -275.36217     -352.8507       0              4121.6976      46.217434      20.047001      20.857         19324.447      2891.5615      4279.3654      5194.1659     -1259.4384      45.858289      462.91468    
  38818000   261.52415     -352.64793     -276.01279     -352.65586      0              6370.4334      45.966667      20.047001      20.857         19219.597      5491.8204      6212.963       7406.5169      489.80778     -240.83616     -522.89903    
  38818500   259.34916     -351.52678     -275.52898     -351.53861      0              4747.1229      46.101154      20.047001      20.857         19275.828      3771.8889      5092.2287      5377.2511     -917.92827      383.46747     -1139.5476    
  38819000   254.49505     -352.5481      -277.97271     -352.56097      0              2502.1777      46.335944      20.047001      20.857         19373.999      2698.0791      2254.544       2553.9101     -30.279806     -44.607806     -69.90684     
  38819500   258.62647     -352.55139     -276.76536     -352.54693      0              5763.3814      46.233084      20.047001      20.857         19330.991      4804.0228      7594.1117      4892.0097      250.80341      911.29673      47.80632     
  38820000   259.19148     -354.2935      -278.34191     -354.27259      0              4343.1265      46.047869      20.047001      20.857         19253.549      5025.384       3244.0332      4759.9623     -705.53308     -709.94366     -1107.4258    
  38820500   261.401       -351.93957     -275.34051     -351.93146      0              4647.8646      45.901055      20.047001      20.857         19192.163      2894.0122      5921.1288      5128.4527     -1137.9501     -703.46742     -1145.4954    
  38821000   262.21444     -351.67482     -274.8374      -351.64347      0              5727.7064      45.937614      20.047001      20.857         19207.449      7209.7636      5490.1422      4483.2134      765.19101     -666.22543      613.72584    
  38821500   268.78682     -351.55585     -272.79251     -351.54777      0              3865.0842      46.384181      20.047001      20.857         19394.168      2306.7243      5871.5671      3416.9613      495.86425      145.34093     -1458.5588    
  38822000   259.42493     -351.74128     -275.72128     -351.72795      0              5827.1059      46.192885      20.047001      20.857         19314.183      5574.2694      6573.138       5333.9103      81.38576       1356.6382     -1160.8511    
  38822500   260.40941     -351.66439     -275.3559      -351.64783      0              4862.9293      45.986017      20.047001      20.857         19227.687      5955.8533      3337.1267      5295.8079      651.09673      489.11115     -1481.1784    
  38823000   266.22002     -352.83401     -274.82283     -352.82725      0              4311.9271      46.028608      20.047001      20.857         19245.495      5298.236       3128.5377      4509.0076      81.016319      1299.1672      564.8112     
  38823500   259.45789     -352.25552     -276.22586     -352.27245      0              2952.9044      46.252066      20.047001      20.857         19338.928      3400.6428      4927.1937      530.87675      1121.6754      1188.1045      308.01535    
  38824000   266.00683     -353.15809     -275.20938     -353.14016      0              4350.2913      46.099477      20.047001      20.857         19275.127      4466.2964      3288.1018      5296.4757     -1060.4841      1315.492       541.6774     
  38824500   265.66782     -354.2302      -276.38083     -354.23224      0              6388.3981      46.009414      20.047001      20.857         19237.47       8315.7708      5973.4929      4875.9305      1139.7439      1466.0027     -1109.0722    
  38825000   257.45        -350.19076     -274.74948     -350.21708      0              2883.4379      46.224663      20.047001      20.857         19327.47       1597.0406      2500.8895      4552.3837     -536.24061      1278.4602      903.65401    
  38825500   260.92437     -351.5188      -275.05942     -351.528        0              7061.3491      46.193105      20.047001      20.857         19314.275      6755.2485      8379.8627      6048.9362      427.89593     -1452.0618      55.393515    
  38826000   260.49686     -353.01902     -276.68491     -353.03946      0              4818.3343      46.374836      20.047001      20.857         19390.26       7991.7942      1858.2624      4604.9464     -1450.0292     -650.28475      358.47988    
  38826500   261.22932     -353.53951     -276.99077     -353.53777      0              6324.0796      46.394297      20.047001      20.857         19398.397      6344.8707      5912.0243      6715.3437      216.65778     -954.96313     -1394.4785    
  38827000   255.02643     -353.26338     -278.53228     -353.25317      0              4952.9841      46.116695      20.047001      20.857         19282.327      4774.003       3231.7193      6853.2302     -1085.2562     -172.07753      912.18707    
  38827500   257.71217     -353.25396     -277.73586     -353.26162      0              3436.0843      46.262331      20.047001      20.857         19343.22       2397.4867      3255.4055      4655.3607     -780.02639      437.52842     -202.78275    
  38828000   259.4836      -350.97481     -274.93762     -350.97834      0              2566.8787      46.454402      20.047001      20.857         19423.529      1631.0478      1540.0264      4529.5618     -845.23518      1442.7726      955.98389    
  38828500   262.39242     -352.06743     -275.17786     -352.09215      0              2887.2941      46.297805      20.047001      20.857         19358.052      2294.6835      6087.2463      279.95266      85.250648      321.06413     -311.13095    
  38829000   255.59713     -352.49954     -277.60121     -352.52159      0              5473.9672      46.006954      20.047001      20.857         19236.441      5761.197       4485.3625      6175.342       116.42161      1170.5494      838.36009    
  38829500   261.93329     -350.85722     -274.10219     -350.84998      0              3823.0971      46.21794       20.047001      20.857         19324.659      4518.1884      2929.8855      4021.2173     -623.59619     -929.16735     -571.37655    
  38830000   261.71199     -354.54826     -277.85808     -354.55641      0              4929.1306      46.653584      20.047001      20.857         19506.81       5659.1477      3461.1192      5667.1248      656.79027      1721.95        241.3844     
  38830500   259.05352     -350.92859     -275.01743     -350.96567      0              7058.6585      46.32341       20.047001      20.857         19368.758      7909.6504      7287.8036      5978.5213      711.35108      881.65127     -904.02974    
  38831000   261.98678     -351.98826     -275.21756     -351.99645      0              3753.2926      46.096001      20.047001      20.857         19273.674      3233.7527      3861.7183      4164.4068      773.66123     -660.7249      -1602.6102    
  38831500   257.6734      -352.03722     -276.53047     -352.05894      0              3221.3487      46.244832      20.047001      20.857         19335.903      1684.4619      3799.3105      4180.2736      1349.4354     -584.12327      795.44961    
  38832000   262.09353     -353.37606     -276.57408     -353.37208      0              2697.4608      46.421878      20.047001      20.857         19409.93       4735.9154      360.45149      2996.0154      1919.6883     -790.75019     -1570.3613    
  38832500   260.2589      -352.32906     -276.06468     -352.34528      0              4562.2135      46.219523      20.047001      20.857         19325.321      3439.3706      4100.3645      6146.9054      1085.2786     -246.48309      1932.8615    
  38833000   260.26424     -353.59916     -277.33321     -353.59793      0              5864.244       45.878777      20.047001      20.857         19182.848      6131.0655      5205.1088      6256.5578      152.06929     -990.40325      837.05393    
  38833500   259.90547     -350.211       -274.05019     -350.24071      0              5418.1402      45.857518      20.047001      20.857         19173.959      5736.3698      3638.4128      6879.638       164.28813      184.06646      515.59074    
  38834000   256.66541     -351.86091     -276.64954     -351.88224      0              6778.3938      46.112034      20.047001      20.857         19280.378      5539.5036      7333.2038      7462.474       12.784582      755.76938      983.38417    
  38834500   251.01396     -351.12363     -277.56832     -351.13144      0              3035.5164      46.151662      20.047001      20.857         19296.947      2172.6511      4007.8046      2926.0935      856.56439      395.09868      174.54506    
  38835000   258.62484     -352.59611     -276.81056     -352.58201      0              4970.9116      45.946693      20.047001      20.857         19211.245      5628.2557      5889.7512      3394.7279     -1518.4889      775.76381      1097.6118    
  38835500   261.21757     -353.7945      -277.24919     -353.82657      0              5406.7757      46.142492      20.047001      20.857         19293.113      4222.2433      5956.5608      6041.5231     -10.838153      848.23231     -548.63527    
  38836000   256.4017      -351.67317     -276.53907     -351.6885       0              5005.2696      46.106948      20.047001      20.857         19278.251      5096.8363      5297.5091      4621.4633      1267.9408      845.61563      128.50564    
  38836500   262.47075     -353.88349     -276.97096     -353.89269      0              5926.5608      45.861117      20.047001      20.857         19175.464      6743.7495      4106.3032      6929.6297     -901.65941      344.53526     -42.580359    
  38837000   261.0221      -352.27027     -275.78225     -352.29775      0              4463.9325      46.155269      20.047001      20.857         19298.455      4738.3511      4914.7905      3738.6557      446.68067     -310.46515     -1123.453     
  38837500   265.27143     -353.73838     -276.00516     -353.72487      0              5393.1362      46.415067      20.047001      20.857         19407.082      5639.3232      4145.9938      6394.0915      600.68757     -1017.9858     -459.71017    
  38838000   256.8318      -350.38498     -275.12485     -350.40726      0              3249.0123      46.129746      20.047001      20.857         19287.783      3615.0529      3565.577       2566.407       827.59006      936.8054       1075.8101    
  38838500   267.05577     -354.71562     -276.45954     -354.70765      0              6651.7628      45.800015      20.047001      20.857         19149.916      9947.6354      3272.7291      6734.924       745.2577      -920.91821      678.17027    
  38839000   263.31802     -352.6217      -275.4609      -352.64909      0              5459.9015      46.026293      20.047001      20.857         19244.527      8005.0635      3864.801       4509.8399     -349.53791      1157.3472      1675.2655    
  38839500   260.55932     -353.05194     -276.69953     -353.18936      0              2131.6612      46.077688      20.047001      20.857         19266.017      1299.8028      1770.6133      3324.5674      341.42834      437.9297      -199.55769    
  38840000   255.46883     -352.4077      -277.54697     -352.39235      0              6601.0488      45.710096      20.047001      20.857         19112.319      6667.9467      5847.4893      7287.7105      706.86125      1154.9918      288.14879    
  38840500   259.56536     -353.80473     -277.74358     -353.79074      0              6827.7948      45.633975      20.047001      20.857         19080.491      7459.8848      6376.5504      6646.9491      37.896893      786.85504     -565.90589    
  38841000   256.87969     -353.6063      -278.33213     -353.60454      0              2790.3241      46.142242      20.047001      20.857         19293.008      4668.365       3568.9624      133.6449       1189.4798      914.75796      951.78916    
  38841500   263.22892     -354.36236     -277.22767     -354.3929       0              5290.5813      46.393615      20.047001      20.857         19398.112      5284.6452      5214.8398      5372.259      -1268.6941      599.64059      586.12848    
  38842000   262.92577     -353.17585     -276.12999     -353.18722      0              6082.8074      45.850855      20.047001      20.857         19171.173      7634.1579      4941.1721      5673.0923      1599.5079     -828.37904      3158.086     
  38842500   270.84811     -353.24673     -273.87936     -353.26024      0              5461.2068      45.876834      20.047001      20.857         19182.035      5337.976       5768.6684      5276.976       514.18309      812.0129       1795.8325    
  38843000   256.89272     -353.28008     -278.0021      -353.30617      0              4291.4409      46.064565      20.047001      20.857         19260.53       4057.5677      4158.6218      4658.1333      170.4243      -2166.7204      1902.6151    
  38843500   258.41383     -352.80889     -277.08518     -352.85437      0              2740.6363      46.334636      20.047001      20.857         19373.452      3116.4114      2977.9564      2127.5411      221.62748      814.71973      1305.5215    
  38844000   269.35497     -353.33253     -274.40271     -353.3416       0              4554.1181      45.944958      20.047001      20.857         19210.519      6463.6716      2408.6145      4790.0681      556.09048      1614.5267      1198.7009    
  38844500   264.15725     -353.80212     -276.3954      -353.82733      0              4497.2742      45.988277      20.047001      20.857         19228.632      5023.1596      2879.446       5589.2169     -224.77521      423.43722      135.94114    
  38845000   255.25692     -355.17183     -280.37319     -355.19833      0              4022.4027      46.217608      20.047001      20.857         19324.52       4729.1712      3166.9121      4171.1248      1763.8735      1063.6022      1053.2662    
  38845500   263.53595     -353.17154     -275.94687     -353.20641      0              4793.6507      46.200859      20.047001      20.857         19317.517      5358.2681      3805.5647      5217.1193     -739.76949      652.36831     -2396.9782    
  38846000   262.71598     -352.69823     -275.71384     -352.73133      0              6575.583       46.158598      20.047001      20.857         19299.847      6339.94        6887.3809      6499.4282     -611.55293     -988.23931      181.86682    
  38846500   255.29886     -352.8229      -278.01197     -352.84472      0              5386.4203      46.183484      20.047001      20.857         19310.252      4076.4316      6115.4102      5967.419       447.80519     -210.27407     -426.16707    
  38847000   257.79333     -354.05201     -278.51012     -354.05323      0              2465.6348      45.916388      20.047001      20.857         19198.574      2470.7398      3601.4024      1324.7621      112.45814      42.598174      2321.1096    
  38847500   254.61516     -354.48449     -279.87392     -354.50411      0              4235.4055      45.712874      20.047001      20.857         19113.481      6148.8995      4129.1565      2428.1605     -500.33773      203.16174     -1085.4345    
  38848000   261.1211      -353.45364     -276.9366      -353.4652       0              4186.6611      46.141808      20.047001      20.857         19292.827      4621.0236      3573.233       4365.7268      1474.1701     -935.57229     -918.19801    
  38848500   265.6098      -352.64755     -274.81518     -352.66384      0              5258.9507      46.18649       20.047001      20.857         19311.509      3323.3019      2754.5798      9698.9703     -365.0346       503.02938      1028.643     
  38849000   266.45482     -349.84232     -271.76233     -349.86372      0              5230.1137      46.013778      20.047001      20.857         19239.295      5991.2453      4424.9453      5274.1505      925.53839     -765.13416      526.46595    
  38849500   257.18707     -349.8065      -274.44227     -349.84285      0              6079.7126      46.18553       20.047001      20.857         19311.108      6308.8308      7147.4041      4782.9031     -669.88261     -266.16411     -453.07708    
  38850000   267.24128     -353.12969     -274.81924     -353.15387      0              4346.9031      46.321866      20.047001      20.857         19368.112      4921.4362      3708.3282      4410.9448     -203.90843     -68.265609     -1185.1483    
  38850500   258.22083     -352.14916     -276.482       -352.17169      0              2727.2162      46.244944      20.047001      20.857         19335.95       2135.0411      2193.4924      3853.1151      503.98161      593.03726      896.99419    
  38851000   262.27458     -350.88649     -274.03145     -350.91481      0              4563.9667      45.946323      20.047001      20.857         19211.09       4035.9368      3834.2302      5821.733      -182.33475     -157.7897      -22.710464    
  38851500   253.51566     -348.77827     -274.48988     -348.79162      0              6122.8759      45.806959      20.047001      20.857         19152.819      7820.9831      5818.8014      4728.8432     -938.98133     -253.84924      1101.0607    
  38852000   256.98166     -351.20563     -275.90159     -351.23401      0              3161.6248      46.059536      20.047001      20.857         19258.427      4152.9464      1515.1586      3816.7693      1158.6753     -603.38953     -523.91144    
  38852500   259.64518     -351.25248     -275.16794     -351.27717      0              2948.0712      46.209892      20.047001      20.857         19321.294      3642.4547      2686.2751      2515.4839     -1253.194       91.091536     -414.12527    
  38853000   259.31227     -351.4363      -275.44931     -351.46753      0              4153.0202      46.070905      20.047001      20.857         19263.181      2653.3827      6379.5632      3426.1148      764.27407      400.91595     -2843.5856    
  38853500   258.44487     -352.09734     -276.36453     -352.12574      0              5334.0561      46.083485      20.047001      20.857         19268.441      6204.0466      3657.0075      6141.1142      304.16297      404.82613     -210.60209    
  38854000   262.2483      -352.4203      -275.57296     -352.44785      0              2952.7252      46.017341      20.047001      20.857         19240.784      4380.0015      2357.1933      2120.9808      1722.7425     -1286.7056      313.06208    
  38854500   259.40488     -353.39286     -277.37873     -353.40106      0              6592.9691      45.91661       20.047001      20.857         19198.667      6369.6586      5386.0767      8023.1719      496.10878     -1416.6415     -124.15675    
  38855000   255.35594     -353.61889     -278.79124     -353.63274      0              970.12878      46.248217      20.047001      20.857         19337.319      1126.7422      1222.8243      560.8199       489.60724      535.55873     -523.56746    
  38855500   259.96094     -351.31964     -275.14257     -351.32544      0              3838.3518      46.199612      20.047001      20.857         19316.996      6195.2362      498.49233      4821.327       206.53183     -1323.1022     -400.10172    
  38856000   258.698       -348.8348      -273.02782     -348.85383      0              5333.8658      45.789587      20.047001      20.857         19145.556      6886.7767      2857.6323      6257.1883     -292.83571      396.30034     -1223.1093    
  38856500   268.23192     -349.44001     -270.83927     -349.45614      0              2307.972       45.725319      20.047001      20.857         19118.684      5285.8306      559.79419      1078.2912      748.90163     -1210.0788     -682.35887    
  38857000   264.19757     -351.33688     -273.91834     -351.35903      0              4472.5788      46.06257       20.047001      20.857         19259.696      4773.7021      4469.0052      4175.029       700.5081       585.94811     -324.4988     
  38857500   264.05006     -350.7394      -273.36409     -350.77039      0              4352.5323      45.929919      20.047001      20.857         19204.232      5083.5331      3958.3632      4015.7007     -545.36871     -508.36396     -1069.5168    
  38858000   265.03375     -350.44616     -272.7826      -350.43436      0              3654.6479      46.073034      20.047001      20.857         19264.071      4598.034       4109.6901      2256.2197      2281.4931      1391.7334      1816.8076    
  38858500   262.91595     -350.85541     -273.81242     -350.87874      0              2587.8734      46.191749      20.047001      20.857         19313.708      3240.8844      2387.3647      2135.3712     -78.24289      -1249.0009      253.71388    
  38859000   261.64989     -352.23832     -275.56633     -352.27339      0              4918.3171      45.869561      20.047001      20.857         19178.995      6469.6895      4138.2413      4147.0207     -403.09357      356.07733      287.91394    
  38859500   262.37753     -352.31248     -275.42727     -352.33956      0              4273.7423      45.955898      20.047001      20.857         19215.094      4390.5783      6176.3906      2254.258       327.59108      39.15614      -360.792      
  38860000   260.11005     -351.39599     -275.17523     -351.42315      0              5263.3841      46.204043      20.047001      20.857         19318.848      4168.6889      6636.4697      4984.9937      1092.6663      411.62564      284.31826    
  38860500   266.67426     -353.24465     -275.10036     -353.26287      0              4852.2734      46.169606      20.047001      20.857         19304.45       5555.5774      3085.4797      5915.7631     -488.90153      45.667114      1639.8447    
  38861000   266.67282     -354.16151     -276.01764     -354.14754      0              4903.0449      46.016524      20.047001      20.857         19240.443      3649.7914      4560.7389      6498.6042      531.62194     -735.03608     -259.23296    
  38861500   260.4496      -355.68377     -279.36351     -355.71259      0              4895.8261      45.831508      20.047001      20.857         19163.084      4945.7278      3452.311       6289.4396      1061.8376     -1317.7669     -1393.9702    
  38862000   265.71178     -353.0533      -275.19105     -353.08605      0              3463.1337      45.713903      20.047001      20.857         19113.911      2586.9573      4422.1604      3380.2834     -853.29747     -502.88587      511.27539    
  38862500   264.06559     -354.18945     -276.80959     -354.22536      0              4461.8541      45.997036      20.047001      20.857         19232.295      5834.7946      2237.9791      5312.7886      785.62413      39.841906      815.19342    
  38863000   265.71311     -353.72381     -275.86116     -353.73941      0              1786.2147      46.390565      20.047001      20.857         19396.837      1904.1461      1781.2792      1673.2187      628.38493     -403.06937      647.95657    
  38863500   259.32305     -352.61111     -276.62096     -352.63813      0              4881.3089      46.323459      20.047001      20.857         19368.778      7602.907       1428.2378      5612.782       1017.1032     -98.248594     -91.517353    
  38864000   264.26984     -353.25423     -275.81451     -353.27133      0              5274.4177      45.947571      20.047001      20.857         19211.612      4921.7049      5751.7932      5149.7549     -642.46447     -1460.4589     -37.607351    
  38864500   258.04369     -350.33468     -274.71943     -350.37265      0              5655.2626      45.945717      20.047001      20.857         19210.837      6243.8281      4927.5065      5794.4531     -458.78097     -569.37693      790.74771    
  38865000   262.67773     -352.09198     -275.1188      -352.11154      0              3565.4959      45.985344      20.047001      20.857         19227.406      4081.8451      3460.2056      3154.4371      600.48586     -349.78435     -340.56223    
[...]
  39964500   269.76725     -351.69074     -272.6401      -351.68587      0              6902.5749      46.119474      20.047001      20.857         19283.488      8535.7948      5838.4369      6333.4929      751.28292     -642.18128      460.73951    
  39965000   262.26537     -350.17023     -273.31789     -350.1877       0              4336.1752      46.136097      20.047001      20.857         19290.439      3366.5732      5400.7176      4241.2348     -338.70428      1684.4303     -76.900977    
  39965500   266.93897     -348.86336     -270.6415      -348.8721       0              5245.0218      45.996038      20.047001      20.857         19231.877      6172.6115      4551.3893      5011.0645     -581.6529      -998.52494     -571.60146    
  39966000   267.17803     -350.50049     -272.20858     -350.48801      0              3929.6253      46.095218      20.047001      20.857         19273.347      4606.7872      4459.8064      2722.2823      56.854098     -1294.6823      1508.9906    
  39966500   259.31443     -350.27769     -274.29007     -350.30941      0              3458.7116      46.338699      20.047001      20.857         19375.151      2316.285       2842.0431      5217.8066     -65.327039     -901.52905     -181.49183    
  39967000   259.48455     -352.05974     -276.02227     -352.06112      0              4222.5532      46.340317      20.047001      20.857         19375.827      1755.7641      5683.0977      5228.7978      1365.3791      292.83431     -933.83633    
  39967500   255.74616     -354.05301     -279.11101     -354.05929      0              5909.0996      46.140857      20.047001      20.857         19292.429      5721.5179      5024.698       6981.0829      128.09827      900.36539      770.85415    
  39968000   264.70294     -353.90171     -276.33507     -353.89387      0              6139.0823      46.071705      20.047001      20.857         19263.515      3465.8297      7486.4757      7464.9414      93.497386     -23.784268      2754.7778    
  39968500   261.65792     -352.27553     -275.60119     -352.24699      0              6622.7855      45.944605      20.047001      20.857         19210.372      7398.3891      5986.9463      6483.0209     -713.90207      430.09824     -762.96865    
  39969000   259.48216     -353.97852     -277.94175     -353.94093      0              5856.2918      45.894276      20.047001      20.857         19189.328      4782.7813      6959.1356      5826.9584     -1425.5013      247.39884     -1031.2037    
  39969500   259.29185     -353.88659     -277.90558     -353.87913      0              4849.8298      45.816546      20.047001      20.857         19156.828      4766.7902      3571.6807      6211.0186      585.20468     -865.61839     -2059.4855    
  39970000   260.67135     -353.93544     -277.5502      -353.93439      0              4263.928       45.9799        20.047001      20.857         19225.13       4075.7461      5842.1889      2873.8492      19.674083      157.37504     -722.99342    
  39970500   259.61744     -353.35148     -277.27507     -353.33908      0              4807.1211      45.936266      20.047001      20.857         19206.885      5979.574       4826.3045      3615.4847      1318.8085      2027.4051     -1155.9161    
  39971000   260.81723     -354.06081     -277.63282     -354.04424      0              5562.9564      45.943867      20.047001      20.857         19210.063      6677.8343      5519.1845      4491.8503      408.83003     -102.66269      251.11707    
  39971500   257.56963     -352.46141     -276.98508     -352.44174      0              2488.0643      46.084527      20.047001      20.857         19268.876      3185.7909      3361.1159      917.28608      106.68071     -398.60102      41.087072    
  39972000   266.13981     -352.25766     -274.26998     -352.26419      0              3486.8287      46.155557      20.047001      20.857         19298.575      4736.0818      2019.2784      3705.126      -917.65746      218.21812      307.10259    
  39972500   258.40323     -352.41232     -276.69171     -352.40306      0              3944.6717      45.726535      20.047001      20.857         19119.193      4146.6247      4946.3881      2741.0021     -979.05654      108.57814      1173.0006    
  39973000   263.61211     -351.70537     -274.45839     -351.68462      0              6066.183       45.618812      20.047001      20.857         19074.151      7939.2044      5034.5472      5224.7973      227.16812     -1946.4259      3095.1475    
  39973500   264.1318      -351.87176     -274.47249     -351.85648      0              2176.9638      46.124049      20.047001      20.857         19285.401      4272.0741     -107.952        2366.7692     -252.12044      490.39358      33.848438    
  39974000   257.62615     -353.03277     -277.53987     -353.03312      0              4544.0191      46.063354      20.047001      20.857         19260.023      5723.4067      4241.7725      3666.8782     -1049.6596      1445.7072     -687.48311    
  39974500   263.3655      -354.02036     -276.84564     -353.99851      0              4270.6475      45.782444      20.047001      20.857         19142.569      4681.2814      3243.7537      4886.9073      620.00352     -963.18382     -1065.7586    
  39975000   254.73792     -352.3952      -277.74865     -352.38964      0              4164.2591      45.692216      20.047001      20.857         19104.843      4665.7346      3453.6477      4373.3949      448.10119     -1019.9986      302.77735    
  39975500   259.29143     -353.14184     -277.16096     -353.12013      0              3558.2509      45.907414      20.047001      20.857         19194.822      4425.4464      3212.8066      3036.4995      62.323446     -29.376475      29.6349      
  39976000   256.25724     -351.17662     -276.08485     -351.15894      0              6789.7485      46.011789      20.047001      20.857         19238.463      4979.6308      8420.437       6969.1777      430.76424      879.57562     -363.00838    
  39976500   260.28329     -353.10692     -276.83539     -353.10162      0              3853.5642      45.714058      20.047001      20.857         19113.976      3732.0364      3134.2742      4694.3819     -26.467859     -955.44141     -869.718      
  39977000   255.88549     -352.83709     -277.85426     -352.78033      0              5313.8581      45.5543        20.047001      20.857         19047.178      6943.1672      2906.1075      6092.2998     -455.07086      1260.4278      568.46814    
  39977500   257.72585     -354.46698     -278.94487     -354.43385      0              3453.0979      45.665814      20.047001      20.857         19093.804      4194.6445      4258.4396      1906.2095      79.510854      1217.1674      271.04657    
  39978000   264.1575      -352.06743     -274.66063     -352.0291       0              3761.2444      45.874867      20.047001      20.857         19181.213      3220.0364      3656.7179      4406.9789      1748.3757     -2427.4351      1429.3534    
  39978500   258.22936     -351.5927      -275.92304     -351.57992      0              2494.925       46.035695      20.047001      20.857         19248.459      3593.6977      1494.2993      2396.778       287.36555     -194.32645     -274.5956     
  39979000   265.87486     -351.63779     -273.72775     -351.6238       0              4892.534       45.964021      20.047001      20.857         19218.49       3403.8295      5586.4657      5687.3068     -10.24507       1023.4603     -885.95438    
  39979500   270.70849     -352.81183     -273.48538     -352.7765       0              5112.0796      45.923627      20.047001      20.857         19201.601      5457.4683      4911.4752      4967.2953      1191.0908     -754.05838      1370.5341    
  39980000   266.9253      -351.54769     -273.32984     -351.52987      0              3448.0423      46.017827      20.047001      20.857         19240.987      2732.1434      4342.0101      3269.9734     -337.43182      993.31239      274.7271     
  39980500   260.13054     -350.61775     -274.39098     -350.54107      0              5268.8968      45.915195      20.047001      20.857         19198.075      6064.4011      3160.389       6581.9005      1221.2468     -649.90767     -729.28071    
  39981000   258.47244     -353.32136     -277.58047     -353.30377      0              5113.5773      45.891394      20.047001      20.857         19188.124      4108.936       4404.0077      6827.7881     -511.99808      568.46799     -633.00854    
  39981500   263.89177     -352.25344     -274.92451     -352.23602      0              3887.6555      45.995432      20.047001      20.857         19231.624      4848.2946      4721.4494      2093.2226     -778.20517     -1847.2376      2267.6636    
  39982000   260.47035     -351.46746     -275.14112     -351.43688      0              6594.2467      45.943689      20.047001      20.857         19209.989      7513.3928      5963.5923      6305.7549     -677.91845      1308.1682      888.96709    
  39982500   265.31002     -353.56652     -275.822       -353.53357      0              3528.9909      45.946526      20.047001      20.857         19211.175      6344.9607      1685.0774      2556.9344     -794.38549      1453.2081     -579.1648     
  39983000   259.24109     -352.89207     -276.92594     -352.83553      0              4375.541       45.949605      20.047001      20.857         19212.463      4314.851       3850.5072      4961.2649      509.21591      8.6331772      88.409966    
  39983500   250.17655     -352.99055     -279.68063     -352.95425      0              5239.9119      46.078782      20.047001      20.857         19266.474      6577.3991      6532.6792      2609.6574      943.77966      652.21461     -496.63922    
  39984000   259.81476     -353.99777     -277.86354     -353.9849       0              3178.8106      45.953639      20.047001      20.857         19214.149      3583.6046      3014.6769      2938.1503      212.04814      1583.8302     -442.71145    
  39984500   256.40635     -353.66103     -278.52558     -353.6193       0              7224.3776      45.861074      20.047001      20.857         19175.446      7553.757       6428.5454      7690.8303      39.278675      471.19314     -691.37034    
  39985000   253.91709     -354.32881     -279.92278     -354.27015      0              4940.2607      46.175697      20.047001      20.857         19306.996      5787.101       4515.2759      4518.4051     -1170.4852      2050.2687     -600.78539    
  39985500   260.76034     -354.8381      -278.42678     -354.79562      0              4454.316       46.08666       20.047001      20.857         19269.768      4606.2896      3842.4403      4914.218       307.5174       677.80449      373.82134    
  39986000   262.38723     -354.17321     -277.28516     -354.12205      0              7208.2976      45.933818      20.047001      20.857         19205.862      8615.0516      7151.805       5858.0361     -1124.028      -1596.0107     -332.52888    
  39986500   256.97392     -353.85091     -278.54913     -353.80808      0              6391.1463      45.961557      20.047001      20.857         19217.46       7766.4854      5500.6711      5906.2822      445.05597     -920.65417     -867.8057     
  39987000   265.94686     -357.50075     -279.56961     -357.43118      0              4586.1881      46.359403      20.047001      20.857         19383.807      5017.9852      4953.5343      3787.045      -672.98685     -477.40063     -787.64056    
  39987500   260.87295     -354.8965      -278.45219     -354.835        0              3443.2342      46.305905      20.047001      20.857         19361.439      5430.9498      2265.3455      2633.4074     -1637.868      -566.79194      1164.6555    
  39988000   258.97147     -355.09797     -279.21085     -355.03252      0              4334.2305      45.847932      20.047001      20.857         19169.951      6641.0617      3533.2809      2828.349       1408.8485      77.12634      -559.75589    
  39988500   261.1073      -354.2174      -277.70441     -354.19453      0              3899.513       46.164436      20.047001      20.857         19302.288      6855.5113      1639.0843      3203.9434      11.512062     -404.31064      211.74997    
  39989000   262.34912     -352.03602     -275.15914     -351.99737      0              5072.7949      46.302138      20.047001      20.857         19359.864      4113.8515      5596.8631      5507.6702      35.272824      2216.8377      1036.9683    
  39989500   265.93762     -354.05521     -276.12678     -354.01288      0              6766.1398      46.157725      20.047001      20.857         19299.482      7470.1597      6896.557       5931.7026     -1396.8413      967.40209     -611.37064    
  39990000   264.92354     -352.54903     -274.91775     -352.51488      0              5572.3709      46.065799      20.047001      20.857         19261.046      5385.8953      6273.2487      5057.9687     -709.55992      233.5514       909.14069    
  39990500   257.64365     -349.53118     -274.03315     -349.50943      0              5084.8024      46.178683      20.047001      20.857         19308.245      4128.428       6004.3535      5121.6257     -345.2259       960.58573      1442.8264    
  39991000   258.32599     -350.98388     -275.28591     -350.94168      0              4726.7711      46.010053      20.047001      20.857         19237.737      4579.0075      5856.0785      3745.2273     -1579.8696      229.41907     -520.56024    
  39991500   261.58408     -350.14158     -273.48888     -350.16469      0              5625.7731      45.969482      20.047001      20.857         19220.773      6051.9415      6486.7391      4338.6387     -674.73097      2174.4065      487.85713    
  39992000   260.27341     -350.05808     -273.78945     -350.04415      0              5901.5165      46.054439      20.047001      20.857         19256.296      6025.4266      6264.3655      5414.7574     -772.52909      1111.357       579.37315    
  39992500   261.31446     -354.64831     -278.07462     -354.59279      0              4484.803       46.19858       20.047001      20.857         19316.564      4989.6376      3403.624       5061.1474     -621.29821      14.147327      1670.5991    
  39993000   260.86804     -352.94698     -276.5041      -352.91445      0              4344.0107      46.083279      20.047001      20.857         19268.354      4957.5232      4988.6704      3085.8386      462.69901      1240.0412     -1647.9762    
  39993500   258.4861      -354.48335     -278.73846     -354.45068      0              4302.6228      46.00422       20.047001      20.857         19235.298      6142.4857      3686.7484      3078.6341     -597.43903      1568.1683     -426.78984    
  39994000   261.6687      -353.42653     -276.74904     -353.38795      0              4698.063       45.971441      20.047001      20.857         19221.593      5052.3286      5150.0059      3891.8543     -1932.674       1206.3466      718.4626     
  39994500   260.9311      -354.50888     -278.04753     -354.44712      0              5922.8246      46.147337      20.047001      20.857         19295.139      6193.756       6547.5215      5027.1963     -1535.5871      59.832056      152.29751    
  39995000   266.90685     -353.78922     -275.57677     -353.79771      0              4185.4933      46.102451      20.047001      20.857         19276.371      3932.8043      3938.9584      4684.7173      196.14729      570.2367       57.32043     
  39995500   266.85719     -356.50005     -278.30216     -356.43794      0              6791.109       45.912216      20.047001      20.857         19196.829      9886.7958      2852.6462      7633.8851     -405.14519      698.78863      585.89081    
  39996000   252.9006      -355.07895     -280.97079     -355.06322      0              3827.3099      45.974048      20.047001      20.857         19222.683      2817.076       4118.4973      4546.3564     -1452.1185      2043.823       235.44353    
  39996500   256.76062     -357.04752     -281.80825     -357.00519      0              5857.7464      45.905089      20.047001      20.857         19193.85       4683.9073      6633.1502      6256.1817     -382.51865     -1657.0286      1036.3792    
  39997000   255.56277     -358.72888     -283.84061     -358.66637      0              3998.9598      45.922322      20.047001      20.857         19201.055      2830.7238      3322.147       5844.0086     -638.76388     -853.55358      946.71476    
  39997500   256.59313     -355.58273     -280.39254     -355.50989      0              6478.5644      45.91989       20.047001      20.857         19200.038      7966.4826      3023.0891      8446.1215     -159.38436      1077.8966     -312.36591    
  39998000   255.08264     -355.31451     -280.56694     -355.25615      0              2875.5082      46.031756      20.047001      20.857         19246.812      386.42881      4947.7609      3292.3348      321.42643     -203.12823     -1490.8465    
  39998500   260.92022     -354.93647     -278.47831     -354.8692       0              3271.6212      45.778248      20.047001      20.857         19140.815      3629.8966      1895.4263      4289.5408      49.334328      302.01832     -1662.2751    
  39999000   264.77397     -351.51474     -273.92729     -351.46038      0              6094.2863      45.769741      20.047001      20.857         19137.258      7925.4158      4157.7465      6199.6964     -363.57793     -167.18336     -236.61295    
  39999500   258.66306     -354.07624     -278.27949     -354.03593      0              1882.9202      45.935813      20.047001      20.857         19206.696      1650.2648      1253.8058      2744.6899     -1065.2314     -1922.4817     -1186.2919    
  40000000   263.64862     -352.79159     -275.53391     -352.72461      0              5543.3355      45.705088      20.047001      20.857         19110.225      7759.2009      3393.0733      5477.7322     -209.68065      2252.488       1029.5039    
Loop time of 29395.3 on 4 procs for 1280500 steps with 2268 atoms

Performance: 1.882 ns/day, 12.753 hours/ns, 43.561 timesteps/s
951.4% CPU use with 4 MPI tasks x no OpenMP threads

MPI task timing breakdown:
Section |  min time  |  avg time  |  max time  |%varavg| %total
---------------------------------------------------------------
Pair    | 16152      | 16219      | 16259      |  32.7 | 55.17
Bond    | 0.151      | 0.15982    | 0.1694     |   1.8 |  0.00
Neigh   | 416.02     | 425.63     | 430.16     |  28.0 |  1.45
Comm    | 1658.8     | 1685.9     | 1729.9     |  65.9 |  5.74
Output  | 1018.4     | 1018.5     | 1018.5     |   0.1 |  3.46
Modify  | 10025      | 10043      | 10061      |  15.7 | 34.16
Other   |            | 3.778      |            |       |  0.01

Nlocal:            567 ave         575 max         549 min
Histogram: 1 0 0 0 0 0 0 0 2 1
Nghost:        3759.25 ave        3819 max        3735 min
Histogram: 3 0 0 0 0 0 0 0 0 1
Neighs:              0 ave           0 max           0 min
Histogram: 4 0 0 0 0 0 0 0 0 0
FullNghs:       144130 ave      146438 max      139279 min
Histogram: 1 0 0 0 0 0 0 0 2 1

Total # of neighbors = 576518
Ave neighs/atom = 254.19665
Ave special neighs/atom = 0
Neighbor list builds = 128050
Dangerous builds not checked

unfix		4
unfix		3
unfix		1

write_data	data.final.${pid}
write_data	data.final.0
System init for write_data ...
Generated 0 of 1 mixed pair_coeff terms from geometric mixing rule
write_restart	restart.lmp.${pid}
write_restart	restart.lmp.0
System init for write_restart ...
Generated 0 of 1 mixed pair_coeff terms from geometric mixing rule
Total wall time: 8:10:15
