LAMMPS (23 Jun 2022)
echo both

include		in.partitions
variable        pid world 0
include		in.temp
variable	temperature equal 260.0
variable        tempDamp equal 0.100 # this is 0.1 ps
include		in.pressure
variable        pressure equal 5066.25
variable        pressureDamp equal 1.0 #this is 1ps
include		in.seed
variable        seed world 745823

units           metal
atom_style	full
read_restart	restart.lmp.${pid}
read_restart	restart.lmp.0
Reading restart file ...
  restart file = 23 Jun 2022, LAMMPS = 23 Jun 2022
  restoring atom style full from restart
  orthogonal box = (0.79077378 0 0) to (46.659925 20.047001 20.857)
  4 by 1 by 1 MPI processor grid
Summary of lammps deepmd module ...
  >>> Info of deepmd-kit:
  installed to:       /u/sigbjobo/software/DEEPMD_FROM_SOURCE/deepmd-kit/install
  source:             v2.1.3
  source branch:       master
  source commit:      5a32c49
  source commit at:   2022-07-01 09:52:58 +0800
  surpport model ver.:1.1 
  build float prec:   double
  build with tf inc:  /u/sigbjobo/software/DEEPMD_FROM_SOURCE/tensorflow/install/include;/u/sigbjobo/software/DEEPMD_FROM_SOURCE/tensorflow/install/include
  build with tf lib:  /u/sigbjobo/software/DEEPMD_FROM_SOURCE/tensorflow/install/lib/libtensorflow_cc.so;/u/sigbjobo/software/DEEPMD_FROM_SOURCE/tensorflow/install/lib/libtensorflow_framework.so
  set tf intra_op_parallelism_threads: 0
  set tf inter_op_parallelism_threads: 0
  >>> Info of lammps module:
  use deepmd-kit at:  /u/sigbjobo/software/DEEPMD_FROM_SOURCE/deepmd-kit/install
  source:             v2.1.3
  source branch:      master
  source commit:      5a32c49
  source commit at:   2022-07-01 09:52:58 +0800
  build float prec:   double
  build with tf inc:  /u/sigbjobo/software/DEEPMD_FROM_SOURCE/tensorflow/install/include;/u/sigbjobo/software/DEEPMD_FROM_SOURCE/tensorflow/install/include
  build with tf lib:  /u/sigbjobo/software/DEEPMD_FROM_SOURCE/tensorflow/install/lib/libtensorflow_cc.so;/u/sigbjobo/software/DEEPMD_FROM_SOURCE/tensorflow/install/lib/libtensorflow_framework.so
  restoring pair style deepmd from restart
  2268 atoms
Finding 1-2 1-3 1-4 neighbors ...
  special bond factors lj:    0        0        0       
  special bond factors coul:  0        0        0       
     0 = max # of 1-2 neighbors
     0 = max # of 1-3 neighbors
     0 = max # of 1-4 neighbors
     1 = max # of special neighbors
  special bonds CPU = 0.000 seconds
  read_restart CPU = 0.008 seconds
include 	in.setup
variable	out_freq equal 500
variable	out_freq2 equal 1000
variable	out_freq3 equal 5000

timestep        0.0005

neigh_modify    delay 7 every 1

include         in.deepmd
# This is deepMD model

# create groups ###
#group ox type 2
#group hy type 1

mass 2 15.999
mass 1 1.008

pair_style      deepmd ../graph.pb
pair_coeff      * *

bond_style      none
angle_style     none
dihedral_style  none
improper_style  none
neigh_modify exclude none


neighbor        2.0 bin
neigh_modify    every 10 delay 0 check no

thermo          ${out_freq}
thermo          500
thermo_style 	custom step temp pe etotal epair emol press lx ly lz vol pxx pyy pzz pxy pxz pyz
#thermo_modify	flush yes
restart 	${out_freq} restart.lmp.${pid} restart2.lmp.${pid}
restart 	500 restart.lmp.${pid} restart2.lmp.${pid}
restart 	500 restart.lmp.0 restart2.lmp.${pid}
restart 	500 restart.lmp.0 restart2.lmp.0

include		in.dump
dump            myDump all atom ${out_freq3} dump.water.${pid}
dump            myDump all atom 5000 dump.water.${pid}
dump            myDump all atom 5000 dump.water.0
dump            myDump2 all dcd ${out_freq2} dump.dcd.${pid}
dump            myDump2 all dcd 1000 dump.dcd.${pid}
dump            myDump2 all dcd 1000 dump.dcd.0
dump_modify     myDump append yes
dump_modify     myDump2 append yes


timer           timeout 23:50:00 every 1000
New timer settings: style=normal  mode=nosync  timeout=23:50:00

fix             1 all plumed plumedfile plumed.dat outfile plumed.out
fix             3 all nph x ${pressure} ${pressure} ${pressureDamp}
fix             3 all nph x 5066.25 ${pressure} ${pressureDamp}
fix             3 all nph x 5066.25 5066.25 ${pressureDamp}
fix             3 all nph x 5066.25 5066.25 1
Resetting global fix info from restart file:
  fix style: nph, fix ID: 3
fix             4 all temp/csvr ${temperature} ${temperature} ${tempDamp} ${seed}
fix             4 all temp/csvr 260 ${temperature} ${tempDamp} ${seed}
fix             4 all temp/csvr 260 260 ${tempDamp} ${seed}
fix             4 all temp/csvr 260 260 0.1 ${seed}
fix             4 all temp/csvr 260 260 0.1 745823
Resetting global fix info from restart file:
  fix style: temp/csvr, fix ID: 4

run             40000000 upto

CITE-CITE-CITE-CITE-CITE-CITE-CITE-CITE-CITE-CITE-CITE-CITE-CITE

Your simulation uses code contributions which should be cited:

- USER-DEEPMD package:

@article{Wang_ComputPhysCommun_2018_v228_p178,
  author = {Wang, Han and Zhang, Linfeng and Han, Jiequn and E, Weinan},
  doi = {10.1016/j.cpc.2018.03.016},
  url = {https://doi.org/10.1016/j.cpc.2018.03.016},
  year = 2018,
  month = {jul},
  publisher = {Elsevier {BV}},
  volume = 228,
  journal = {Comput. Phys. Commun.},
  title = {{DeePMD-kit: A deep learning package for many-body potential energy representation and molecular dynamics}},
  pages = {178--184}
}

CITE-CITE-CITE-CITE-CITE-CITE-CITE-CITE-CITE-CITE-CITE-CITE-CITE

Generated 0 of 1 mixed pair_coeff terms from geometric mixing rule
All restart file global fix info was re-assigned
Neighbor list info ...
  update every 10 steps, delay 0 steps, check no
  max neighbors/atom: 2000, page size: 100000
  master list distance cutoff = 8
  ghost atom cutoff = 8
  binsize = 4, bins = 12 6 6
  1 neighbor lists, perpetual/occasional/extra = 1 0 0
  (1) pair deepmd, perpetual
      attributes: full, newton on
      pair build: full/bin
      stencil: full/bin/3d
      bin: standard
Per MPI rank memory allocation (min/avg/max) = 6.15 | 6.151 | 6.151 Mbytes
   Step          Temp          PotEng         TotEng         E_pair         E_mol          Press            Lx             Ly             Lz           Volume          Pxx            Pyy            Pzz            Pxy            Pxz            Pyz      
  28753500   258.57765     -349.25613     -273.48441     -349.25613      0              6190.6377      45.869151      20.047001      20.857         19178.823      7703.9283      6242.4989      4625.4858     -1288.491      -125.48155      1533.5073    
  28754000   257.19419     -351.04616     -275.67984     -351.00266      0              3126.3054      46.094907      20.047001      20.857         19273.216      2223.3697      4167.9308      2987.6155      953.71922      1347.067      -1292.8443    
  28754500   261.28961     -352.93293     -276.36652     -352.92043      0              3866.0102      46.168606      20.047001      20.857         19304.031      4624.2726      3303.5131      3670.2449     -1277.6788      1255.0552      931.50211    
  28755000   257.69376     -351.08476     -275.57205     -351.09111      0              4922.0615      46.247101      20.047001      20.857         19336.852      4740.311       5094.3018      4931.5719      73.073443      1052.7491     -1633.2725    
  28755500   266.09502     -350.10366     -272.12911     -350.10789      0              3701.42        46.156975      20.047001      20.857         19299.168      3891.9079      3766.3085      3446.0437      1446.9726      86.37602      -780.30873    
  28756000   273.05136     -348.89901     -268.88602     -348.89515      0              2881.9798      46.20467       20.047001      20.857         19319.111      4515.4984      1861.3346      2269.1065      1270.2755      478.00454      219.63954    
  28756500   266.66551     -354.44401     -276.30228     -354.40971      0              3325.7788      46.174232      20.047001      20.857         19306.384      4365.3983      1683.9453      3927.9927     -826.40733     -91.368667     -256.89535    
  28757000   256.57079     -351.14428     -275.96064     -351.11972      0              7627.4224      45.83963       20.047001      20.857         19166.48       7293.6442      8785.2119      6803.4111     -430.92413     -624.1314       310.69414    
  28757500   262.73225     -353.2684      -276.27925     -353.20355      0              4973.9456      46.047502      20.047001      20.857         19253.395      4774.2175      5688.9551      4458.6642      347.30544     -367.87216     -1111.4392    
  28758000   265.20751     -353.38422     -275.66974     -353.35364      0              4488.2163      46.149556      20.047001      20.857         19296.066      5066.0127      3635.376       4763.2602     -565.88062      544.58617      1626.8062    
  28758500   255.52815     -351.43404     -276.55593     -351.40287      0              4419.8923      46.180432      20.047001      20.857         19308.976      3997.2052      5685.7448      3576.7269      958.57853      728.68737     -763.78799    
  28759000   254.60059     -352.08378     -277.47747     -352.03779      0              6242.5908      46.014134      20.047001      20.857         19239.443      4849.3777      7539.9431      6338.4515      289.27681      1481.7076      102.8598     
  28759500   259.65725     -352.70805     -276.61997     -352.64781      0              5754.0651      45.910666      20.047001      20.857         19196.181      7870.6412      4601.3363      4790.2179     -63.117637      356.40128     -45.978043    
  28760000   260.57973     -352.46146     -276.10307     -352.45328      0              4619.9735      45.956364      20.047001      20.857         19215.289      6574.8366      3559.6015      3725.4825      211.62615      258.54606      1751.7692    
  28760500   261.86933     -352.18        -275.44371     -352.15935      0              4664.6436      46.03907       20.047001      20.857         19249.87       2900.5974      6151.6468      4941.6866     -345.62329     -127.71582     -1671.7495    
  28761000   264.03109     -348.69572     -271.32596     -348.63154      0              6403.791       45.761158      20.047001      20.857         19133.669      7900.812       4579.8677      6730.6934      872.49998      2527.2831      136.70156    
  28761500   257.25712     -346.79039     -271.40563     -346.75494      0              4566.4049      45.952084      20.047001      20.857         19213.499      5212.8507      6383.9415      2102.4226      209.72847      141.71307      827.09466    
  28762000   270.18043     -348.58306     -269.41134     -348.52381      0              6033.7553      46.033406      20.047001      20.857         19247.501      6316.9206      5410.5683      6373.7769     -1558.707      -932.43895     -3294.7054    
  28762500   269.2321      -346.5571      -267.66327     -346.55245      0              5492.0889      45.931018      20.047001      20.857         19204.691      4282.8237      6100.9182      6092.5249      831.00486      1069.6232     -1519.2584    
  28763000   260.64763     -349.61695     -273.23866     -349.6107       0              3492.6031      45.678759      20.047001      20.857         19099.216      3675.3009      2208.2959      4594.2126     -134.45389      758.75591     -711.16789    
  28763500   264.17693     -350.22707     -272.81457     -350.1915       0              5800.8621      45.724526      20.047001      20.857         19118.352      5480.6507      7430.7312      4491.2042      644.55351      1052.9429      2313.9606    
  28764000   257.07251     -349.48688     -274.15621     -349.50309      0              4282.0083      46.14912       20.047001      20.857         19295.884      4354.6751      5193.243       3298.1067     -1176.4783     -13.032054     -1638.9305    
  28764500   257.4258      -350.16914     -274.73495     -350.17283      0              3460.9133      46.221878      20.047001      20.857         19326.305      5960.1814      1875.4849      2547.0737     -581.49973      735.3072      -296.98335    
  28765000   258.73147     -348.98148     -273.16468     -348.93578      0              3699.2321      45.951342      20.047001      20.857         19213.189      3136.6084      4978.5397      2982.5482     -943.67338     -131.57214     -1222.5663    
  28765500   250.43393     -351.71268     -278.32734     -351.7055       0              5291.6157      45.898397      20.047001      20.857         19191.052      5588.2084      4981.0818      5305.5569     -994.55163      360.15206     -1287.2489    
  28766000   260.44516     -349.67858     -273.35962     -349.63333      0              2993.357       45.903952      20.047001      20.857         19193.374      2933.9865      3958.4723      2087.6122      329.33335      627.02344      574.49029    
  28766500   265.66422     -351.75815     -273.90983     -351.71377      0              5825.0841      46.025741      20.047001      20.857         19244.297      5064.4887      6033.763       6377.0005      411.41818      1238.0909     -1669.9156    
  28767000   261.48462     -350.23626     -273.6127      -350.22984      0              5740.5275      46.061275      20.047001      20.857         19259.154      5501.5261      7509.3018      4210.7546      220.72497      1065.8938     -41.307447    
  28767500   258.59616     -348.89495     -273.11781     -348.84963      0              4205.3601      46.122707      20.047001      20.857         19284.84       4246.6222      2662.8765      5706.5815     -854.84219     -2129.3212      174.85077    
  28768000   256.8996      -351.85668     -276.57669     -351.79697      0              4251.5295      46.05229       20.047001      20.857         19255.397      5864.7695      2708.8545      4180.9645     -924.47709      576.42073     -2710.0919    
  28768500   253.11256     -351.8826      -277.71233     -351.86639      0              4297.5266      45.964449      20.047001      20.857         19218.669      3634.653       3682.3901      5575.5365     -688.89551      776.06377     -483.27896    
  28769000   256.84892     -351.03408     -275.76894     -351.01354      0              5704.9629      46.060622      20.047001      20.857         19258.881      7680.0394      4681.8969      4752.9525      365.61549      1044.8584     -1418.7963    
  28769500   253.52252     -350.51062     -276.22022     -350.46645      0              4973.7175      46.088         20.047001      20.857         19270.328      4815.3574      3867.2964      6238.4986     -1795.7281     -16.418432     -185.63985    
  28770000   261.34263     -349.36464     -272.78269     -349.3418       0              3938.6722      46.31118       20.047001      20.857         19363.645      4716.2872      4732.1152      2367.6142     -1041.9402     -1198.8908     -1224.608     
  28770500   266.1124      -349.12612     -271.14647     -349.08112      0              5682.4419      46.589892      20.047001      20.857         19480.179      5911.6058      6306.8127      4828.9071      958.28893      1926.6877      1016.9241    
  28771000   263.19193     -350.57693     -273.45308     -350.55819      0              3739.6172      46.288886      20.047001      20.857         19354.323      3128.7885      3908.0929      4181.9701     -1295.4471      1351.6918      2107.8424    
  28771500   267.25398     -351.30478     -272.99061     -351.25725      0              4636.7902      46.024931      20.047001      20.857         19243.958      2755.021       7714.411       3440.9384      20.416035      2020.845       733.87469    
  28772000   257.37149     -351.07631     -275.65804     -351.02066      0              6110.1856      46.061396      20.047001      20.857         19259.205      5994.4732      6667.6345      5668.4492     -296.44126     -1162.1688      1426.4352    
  28772500   262.64392     -350.26929     -273.30602     -350.23093      0              4497.6562      46.222007      20.047001      20.857         19326.359      4643.8068      4473.2006      4375.9612     -610.70079     -1415.8035      2477.9502    
  28773000   257.76113     -349.82739     -274.29494     -349.81761      0              5825.6152      46.298063      20.047001      20.857         19358.16       8518.5459      4422.1752      4536.1247     -479.61306      362.74785      1351.6523    
  28773500   262.2168      -349.78967     -272.95156     -349.73996      0              6072.0586      46.034655      20.047001      20.857         19248.024      4418.6893      6911.9467      6885.5398      92.11399      -1153.1414     -283.7359     
  28774000   263.26501     -350.81272     -273.66745     -350.78833      0              3287.2594      46.161716      20.047001      20.857         19301.151      4615.129       2795.6405      2451.0089      1181.9906      1437.0171     -2066.9954    
  28774500   257.68435     -350.79306     -275.28311     -350.7861       0              3348.0248      46.199701      20.047001      20.857         19317.033      1236.51        4221.0802      4586.4842     -363.71779      507.038        224.64027    
  28775000   266.05539     -351.37457     -273.41163     -351.36738      0              4148.1432      46.127005      20.047001      20.857         19286.637      3551.1329      5848.9301      3044.3666     -76.937449      815.42655     -1207.8441    
  28775500   252.93618     -349.20251     -275.08392     -349.17802      0              3404.7949      46.312682      20.047001      20.857         19364.272      2976.4947      4040.826       3197.064      -1561.8911     -2391.0809     -36.538844    
  28776000   268.4705      -352.77446     -274.10381     -352.74141      0              5777.9196      46.2358        20.047001      20.857         19332.127      8729.3014      3339.0114      5265.4459      1346.0284      1353.4601     -1849.2223    
  28776500   259.97846     -350.06045     -273.87825     -350.02381      0              5420.0914      45.925775      20.047001      20.857         19202.499      6052.5272      6488.585       3719.162       27.940595      320.6075       357.96997    
  28777000   261.42275     -349.61503     -273.0096      -349.59505      0              5792.3752      45.991592      20.047001      20.857         19230.018      6665.4425      6143.8219      4567.8613      51.058882     -1645.9851     -1076.4474    
  28777500   256.29624     -350.94275     -275.83956     -350.89432      0              3553.8515      46.522708      20.047001      20.857         19452.088      4533.796       4093.1488      2034.6097     -236.05704     -614.97103     -296.75574    
  28778000   257.52905     -351.80791     -276.34346     -351.81108      0              5111.2687      46.625503      20.047001      20.857         19495.069      4680.2728      4976.5874      5676.9459      96.483344     -1004.9958     -41.039832    
  28778500   255.6616      -350.49357     -275.57635     -350.46781      0              5215.5052      46.187789      20.047001      20.857         19312.052      5386.4017      4128.51        6131.6038     -1406.7246      1227.0129     -468.78074    
  28779000   260.10809     -352.02046     -275.80027     -351.97295      0              4859.1095      46.095261      20.047001      20.857         19273.364      4264.9671      4746.8436      5565.5179     -826.2972       1481.4708     -987.11945    
  28779500   257.09264     -351.2668      -275.93023     -351.24298      0              5317.0671      46.192195      20.047001      20.857         19313.894      4161.0749      3885.2056      7904.921       789.48353     -1366.8126      1158.1369    
  28780000   266.43814     -352.89178     -274.81668     -352.8676       0              3856.5858      46.161157      20.047001      20.857         19300.917      2175.9142      5916.8176      3477.0256     -670.04962      758.19048     -406.78362    
  28780500   257.64061     -350.78956     -275.29243     -350.78104      0              5309.4421      46.143562      20.047001      20.857         19293.56       7376.8688      4960.8226      3590.6348      315.07017      1023.485       432.80184    
  28781000   267.20511     -352.42966     -274.12981     -352.40773      0              5342.5734      46.12512       20.047001      20.857         19285.849      4314.2098      6130.7183      5582.7921      295.92223      843.0801       1697.1633    
  28781500   262.34571     -350.1518      -273.27591     -350.12341      0              5473.8097      46.226226      20.047001      20.857         19328.123      5129.9899      5958.0694      5333.3698      98.824537     -410.30641      8.6536856    
  28782000   246.71946     -353.25366     -280.95678     -353.24878      0              3342.25        46.526737      20.047001      20.857         19453.773      3598.5057      3576.3473      2851.897      -76.972514      2016.4949      1631.0446    
  28782500   259.44417     -353.16801     -277.14237     -353.14336      0              4942.2302      46.361399      20.047001      20.857         19384.642      6176.1942      5829.7692      2820.7272      952.58279     -366.27925      1436.0783    
  28783000   255.73576     -351.42566     -276.48671     -351.39796      0              5229.5067      46.197242      20.047001      20.857         19316.005      4157.5809      6657.9642      4872.9751     -2386.9999     -666.78892     -847.80803    
  28783500   258.53952     -354.31765     -278.55711     -354.32374      0              4270.7748      46.100719      20.047001      20.857         19275.646      5780.9989      5418.8078      1612.5177     -746.89239     -189.80142     -1168.4138    
  28784000   263.34357     -352.03529     -274.86699     -352.05121      0              4336.686       46.094802      20.047001      20.857         19273.172      3334.7806      5425.0546      4250.2228      1498.1594      667.31675      173.57205    
  28784500   263.0722      -350.51722     -273.42845     -350.53258      0              4408.3099      46.35817       20.047001      20.857         19383.292      4862.115       3960.9704      4401.8442     -1594.6045      2127.6442     -583.94461    
  28785000   264.50433     -349.71051     -272.20208     -349.72293      0              6820.8979      46.207547      20.047001      20.857         19320.313      7277.6778      6522.3751      6662.6409     -132.08496     -326.82378      283.00336    
  28785500   259.29409     -350.734       -274.75234     -350.73156      0              2082.1391      46.037098      20.047001      20.857         19249.045      4877.8726     -158.04947      1526.594       1131.0568     -71.564725     -224.13855    
  28786000   263.97676     -350.17267     -272.81884     -350.15435      0              4402.367       46.062625      20.047001      20.857         19259.718      4337.3939      5046.3475      3823.3595      710.07952     -786.4765       1143.0988    
  28786500   255.66417     -352.29963     -277.38166     -352.31985      0              5373.8642      46.130974      20.047001      20.857         19288.297      6612.0334      4112.1526      5397.4065     -197.66161      752.84013     -1692.3389    
  28787000   257.35402     -350.82879     -275.41564     -350.83376      0              2842.0784      46.285572      20.047001      20.857         19352.937      2740.614       3544.4555      2241.1658      483.87698     -53.258781      174.05197    
  28787500   258.91631     -352.43075     -276.5598      -352.44115      0              5239.3097      46.370208      20.047001      20.857         19388.325      7583.9478      2518.3817      5615.5997     -1134.803       509.93165     -478.6063     
  28788000   260.11368     -351.06156     -274.83974     -351.06205      0              3147.7459      46.314591      20.047001      20.857         19365.071      5255.4315      2425.0324      1762.7738     -1594.1122      436.3353      -337.78429    
  28788500   264.51934     -352.53824     -275.02541     -352.55077      0              5011.8763      46.360769      20.047001      20.857         19384.379      5481.5399      2707.6232      6846.4656     -466.95327     -55.349764     -107.40699    
  28789000   260.63851     -352.74905     -276.37343     -352.73263      0              6070.6839      46.251388      20.047001      20.857         19338.644      7750.0091      6073.7996      4388.2429     -415.20289     -800.13812      1374.3651    
  28789500   261.0974      -352.79638     -276.28629     -352.77835      0              5433.8004      46.096203      20.047001      20.857         19273.758      6716.1349      3998.5388      5586.7276      485.17023      2059.7351      436.05613    
  28790000   251.56715     -348.83654     -275.11912     -348.7972       0              4171.2867      46.197062      20.047001      20.857         19315.93       5491.3564      4059.4658      2963.0378      605.11093     -132.98709      601.49416    
  28790500   262.18603     -352.7553      -275.92621     -352.73535      0              5695.5365      46.322751      20.047001      20.857         19368.482      7346.1143      3982.7894      5757.7058     -626.95643     -1827.3865      836.72418    
  28791000   266.30588     -350.06366     -272.02732     -350.07301      0              5679.7504      46.288569      20.047001      20.857         19354.19       7159.5675      6402.0648      3477.6188     -1130.4427      1631.2477      225.9983     
  28791500   270.12197     -350.04511     -270.89052     -350.03059      0              5870.0695      46.279079      20.047001      20.857         19350.222      4707.5931      6291.4683      6611.1472      223.77504     -954.61359      132.65407    
  28792000   266.96475     -349.43106     -271.20164     -349.40862      0              3874.1299      46.212192      20.047001      20.857         19322.255      4352.7659      4114.0198      3155.604       235.63681      108.02199      1092.9934    
  28792500   265.23383     -350.6908      -272.9686      -350.64829      0              3550.8432      46.111738      20.047001      20.857         19280.254      3336.9755      3872.3404      3443.2138      1675.7059     -758.6293       2719.4528    
  28793000   255.01634     -352.52484     -277.7967      -352.53513      0              5886.3409      46.052202      20.047001      20.857         19255.36       5838.1995      5843.597       5977.2263     -268.39733     -181.76328      864.52273    
  28793500   256.42587     -354.03155     -278.89037     -353.98449      0              6838.3102      45.899825      20.047001      20.857         19191.649      7128.9355      8288.6741      5097.3211     -220.13079     -1002.8457     -1288.8876    
  28794000   254.75226     -352.84345     -278.1927      -352.77893      0              5639.1769      45.679981      20.047001      20.857         19099.727      7048.2013      4598.7763      5270.553       1373.6295     -2080.551      -1301.6084    
  28794500   260.96425     -354.79105     -278.31997     -354.72963      0              4128.9252      45.791632      20.047001      20.857         19146.411      5635.4704      6636.5314      114.7737       127.48286     -268.52973      1150.8064    
  28795000   258.78077     -352.50212     -276.67088     -352.45497      0              5767.4298      46.01702       20.047001      20.857         19240.65       5008.9608      6076.9368      6216.3919      156.39442      430.77339     -1750.9664    
  28795500   263.12464     -349.47802     -272.37389     -349.43298      0              3671.1763      45.972842      20.047001      20.857         19222.179      5563.856       2946.4969      2503.176       486.05346     -1394.2956     -1060.1205    
  28796000   267.3782      -351.25362     -272.90305     -351.18801      0              5926.4183      45.873225      20.047001      20.857         19180.527      6541.9665      4766.4511      6470.8371      1248.3597     -858.15814      234.77848    
  28796500   266.39643     -352.50541     -274.44253     -352.43961      0              4604.4954      46.207119      20.047001      20.857         19320.134      2616.1687      5719.598       5477.7195      727.51516     -1128.9994      155.86899    
  28797000   263.81217     -350.20665     -272.90104     -350.16982      0              4218.7702      46.234963      20.047001      20.857         19331.776      4604.9381      3071.7417      4979.6309     -351.60333      905.71639      55.646197    
  28797500   261.66571     -352.0672      -275.39058     -352.01092      0              3801.3166      45.937534      20.047001      20.857         19207.415      2604.9548      5085.491       3713.504       291.8038      -388.99595      540.38045    
  28798000   263.54359     -351.75541     -274.52851     -351.7065       0              5248.3634      45.828995      20.047001      20.857         19162.033      5597.6733      5202.5083      4944.9086      401.62705     -865.26838      376.01236    
  28798500   257.64509     -349.11312     -273.61467     -349.09453      0              1687.9388      46.042928      20.047001      20.857         19251.483      791.06835      3243.191       1029.5569     -1267.5108      839.2348       1795.3432    
  28799000   266.82257     -349.49595     -271.3082      -349.47722      0              5051.671       45.88772       20.047001      20.857         19186.587      4407.4643      5441.9819      5305.5668      2075.0047     -1228.7164      68.099465    
  28799500   261.02378     -349.58357     -273.09506     -349.54801      0              4233.0264      45.672478      20.047001      20.857         19096.59       4661.1952      2920.1863      5117.6977     -748.02136      268.89428      941.67463    
  28800000   261.98635     -352.50889     -275.73831     -352.49024      0              4513.5457      45.719185      20.047001      20.857         19116.119      4328.0072      2761.0311      6451.5989     -1053.8766     -2248.3519     -739.22615    
  28800500   247.8347      -351.73031     -279.10663     -351.71745      0              3842.2783      45.676657      20.047001      20.857         19098.337      1814.8062      4289.356       5422.6728      293.97962     -1007.9686     -3161.246     
  28801000   257.75209     -354.00458     -278.47478     -353.95822      0              5208.872       45.691616      20.047001      20.857         19104.592      4269.7547      4613.3301      6743.5311     -1997.4013     -1387.7168     -160.83269    
  28801500   259.07341     -350.0546      -274.1376      -350.05933      0              3967.8024      45.915607      20.047001      20.857         19198.247      4806.7338      3794.9119      3301.7614      1007.974       488.37545      55.782198    
  28802000   257.49465     -348.16166     -272.7073      -348.18308      0              5488.6147      45.97615       20.047001      20.857         19223.561      4831.4822      4725.2524      6909.1094     -2047.8001      1251.9043     -2658.1567    
  28802500   256.23216     -352.3999      -277.31549     -352.36167      0              6276.0748      45.758596      20.047001      20.857         19132.598      7000.5422      7183.0909      4644.5912      1209.2971     -1261.3282     -348.74015    
  28803000   260.44105     -350.84524     -274.52748     -350.82718      0              5144.1093      45.857126      20.047001      20.857         19173.795      4034.7439      5130.1962      6267.3878     -158.81769      1191.5835     -529.37244    
  28803500   256.32067     -350.25304     -275.14269     -350.26252      0              7016.5777      46.317651      20.047001      20.857         19366.35       5393.9477      10755.614      4900.1709      382.16767     -669.4275      -1309.5925    
  28804000   260.84487     -352.55022     -276.11413     -352.54262      0              4996.6446      46.288993      20.047001      20.857         19354.368      5413.259       5862.3985      3714.2761      941.10823      1623.623       752.16686    
  28804500   257.28442     -351.40898     -276.01622     -351.41835      0              3900.7502      46.096041      20.047001      20.857         19273.691      5937.3645      795.15503      4969.7311      449.66741      1273.4962      722.14018    
  28805000   262.78113     -351.15423     -274.15075     -351.13586      0              4398.5304      46.156926      20.047001      20.857         19299.148      3204.98        5425.8647      4564.7465      1047.6042      202.54054     -913.97666    
  28805500   256.25859     -351.66153     -276.56937     -351.62338      0              4401.1723      46.022839      20.047001      20.857         19243.083      4498.61        3898.1427      4806.7642      213.95908      55.770508      46.071014    
  28806000   262.07723     -351.25854     -274.46133     -351.25532      0              1938.8409      45.901005      20.047001      20.857         19192.142      3023.8758      598.23236      2194.4144      261.9493      -444.7775      -656.68946    
  28806500   263.66174     -351.63378     -274.37226     -351.60948      0              4246.7379      45.92406       20.047001      20.857         19201.782      5426.3048      5684.7473      1629.1615     -277.07923     -878.44811     -757.26723    
  28807000   264.13823     -349.42166     -272.02051     -349.41449      0              2530.6698      46.249905      20.047001      20.857         19338.024      4367.2742     -815.81097      4040.5462      328.56183      260.25397      1344.5889    
  28807500   254.94285     -351.9377      -277.23109     -351.93379      0              5260.0566      46.224752      20.047001      20.857         19327.507      6199.7398      5364.9804      4215.4497      967.98204      581.83595     -823.181      
  28808000   265.20637     -352.35717     -274.64302     -352.35504      0              5050.4039      46.132573      20.047001      20.857         19288.965      8929.7241      2312.5781      3908.9095     -155.97504     -1079.4864      411.59903    
  28808500   263.85804     -349.34849     -272.02945     -349.31847      0              4467.3237      46.220587      20.047001      20.857         19325.766      5150.3027      3476.6142      4775.054       439.228        737.04277      1221.8805    
  28809000   262.79668     -348.72894     -271.72091     -348.71001      0              4531.4964      46.305375      20.047001      20.857         19361.217      5413.3243      5485.9417      2695.2232     -300.59837      562.26976     -1117.1292    
  28809500   261.47971     -348.79639     -272.17427     -348.76373      0              4644.9552      46.405573      20.047001      20.857         19403.112      3533.794       4784.4091      5616.6625     -371.70988     -231.04505     -336.13137    
  28810000   262.83122     -351.4664      -274.44824     -351.41676      0              4703.6377      46.362166      20.047001      20.857         19384.963      5998.1149      3326.574       4786.2242     -635.60453      218.13206      1214.5794    
  28810500   260.55225     -351.06223     -274.71189     -351.03025      0              4683.3838      46.350986      20.047001      20.857         19380.288      4988.521       7009.8389      2051.7916      373.79389      27.224468     -377.56044    
  28811000   263.44112     -351.60224     -274.40536     -351.54292      0              5362.5545      46.082247      20.047001      20.857         19267.923      8277.6177      2165.5688      5644.4771      354.19914     -445.55689      396.58615    
  28811500   255.53661     -349.49367     -274.61308     -349.48399      0              2721.694       46.32027       20.047001      20.857         19367.445      3408.5105      2290.3351      2466.2364      1396.9623      166.74329     -722.95318    
  28812000   256.38357     -348.88267     -273.75389     -348.87319      0              3764.4466      46.486524      20.047001      20.857         19436.96       4719.086       3018.6738      3555.5799     -997.04399     -328.53175      313.66807    
  28812500   260.29158     -354.18139     -277.90743     -354.12908      0              2202.111       46.261049      20.047001      20.857         19342.684      3305.1343      580.39521      2720.8035     -532.45925     -1140.6552     -847.84628    
  28813000   259.96314     -350.73498     -274.55726     -350.68156      0              3476.5126      45.958943      20.047001      20.857         19216.367      5365.687       2456.78        2607.0709      473.43192     -1938.7448     -55.40306     
  28813500   264.90912     -353.02527     -275.39822     -352.99115      0              3293.789       46.056817      20.047001      20.857         19257.29       2584.7548      2653.4221      4643.19        1395.3328     -308.35655      699.52105    
  28814000   260.47747     -352.08623     -275.7578      -352.05186      0              3853.5844      46.272456      20.047001      20.857         19347.453      2879.7153      5168.0152      3513.0227      214.40566      677.07762      190.5686     
  28814500   255.85105     -354.31005     -279.33732     -354.25924      0              5293.1515      46.022638      20.047001      20.857         19242.999      4557.9975      5986.2941      5335.163      -651.84012     -30.530121      1259.2255    
  28815000   254.77021     -349.12067     -274.46466     -349.07303      0              3715.2208      46.001266      20.047001      20.857         19234.063      5767.5875      2415.6493      2962.4254      65.318041      366.5838       101.62537    
  28815500   248.52873     -353.13806     -280.311       -353.11356      0              2839.0743      46.243904      20.047001      20.857         19335.515      3874.4361      1205.954       3436.8329     -460.18195      757.65958     -1239.8259    
  28816000   262.76122     -353.3483      -276.35066     -353.31293      0              5212.5247      46.008205      20.047001      20.857         19236.964      8546.2844      4327.3204      2763.9693      457.80777     -967.13221     -387.41299    
  28816500   258.94175     -350.34435     -274.46594     -350.33533      0              4200.7293      46.046865      20.047001      20.857         19253.129      4822.0152      3690.1009      4090.072       1195.9952      504.44413     -84.791199    
  28817000   257.51363     -352.39143     -276.93151     -352.36471      0              4434.9516      46.395756      20.047001      20.857         19399.007      4101.7383      4370.0481      4833.0685     -1026.9009     -761.32771      1341.9151    
  28817500   257.6676      -353.22673     -277.72169     -353.21516      0              7591.0998      46.635725      20.047001      20.857         19499.343      6547.2956      9384.3311      6841.6727     -293.61982      553.70013     -1348.5701    
  28818000   260.4453      -351.78748     -275.46847     -351.79161      0              4463.7706      46.51147       20.047001      20.857         19447.39       5513.588       4998.7538      2878.9699     -1228.9302     -1772.643       384.62939    
  28818500   261.42884     -351.42801     -274.8208      -351.41601      0              2027.4875      45.993295      20.047001      20.857         19230.73       2939.3971     -1257.6075      4400.6727     -756.67295      929.86903      348.60836    
  28819000   265.75911     -351.10463     -273.2285      -351.12358      0              5340.37        46.059083      20.047001      20.857         19258.238      5704.9429      5250.1236      5066.0435      513.88712      304.60507      360.04048    
  28819500   261.89261     -349.93795     -273.19483     -349.92178      0              5620.2067      46.220842      20.047001      20.857         19325.873      6241.501       4333.7619      6285.3572     -175.59602     -469.34022     -1753.8479    
  28820000   265.28223     -350.00001     -272.26363     -349.99462      0              3465.2685      46.200415      20.047001      20.857         19317.331      4739.7875      2887.8954      2768.1225     -157.23665     -1302.9698     -1472.4776    
  28820500   269.49704     -350.36372     -271.39227     -350.37779      0              5361.7792      46.079912      20.047001      20.857         19266.947      5109.769       5058.544       5917.0245      1614.4282      1885.6133      1975.8333    
  28821000   265.49545     -351.35394     -273.55508     -351.34608      0              4245.2165      46.096607      20.047001      20.857         19273.927      4601.4971      4188.3286      3945.8237      76.387342     -2712.3384      1587.0108    
  28821500   253.79148     -350.52773     -276.15852     -350.52157      0              2904.1482      46.279291      20.047001      20.857         19350.311      2782.8909      752.28754      5177.2661      2359.5925      1595.2286     -706.50989    
  28822000   260.06499     -353.83651     -277.62895     -353.79996      0              4562.4057      46.231841      20.047001      20.857         19330.471      6053.0945      3500.7467      4133.3759     -128.03894     -1160.3703      301.99607    
  28822500   264.35663     -353.40986     -275.94471     -353.38179      0              4767.4938      46.066469      20.047001      20.857         19261.326      3914.4209      5690.8746      4697.1859      548.52973      1548.2015     -101.97892    
  28823000   255.57019     -353.71663     -278.82619     -353.67         0              5949.7463      46.078591      20.047001      20.857         19266.394      7063.8799      5449.9764      5335.3828      259.08249     -755.33377     -619.6043     
  28823500   254.50726     -350.89405     -276.31509     -350.86408      0              2409.2278      46.036687      20.047001      20.857         19248.873      3466.7803      1934.019       1826.8843      660.01585     -368.39433     -423.44197    
  28824000   260.08209     -352.76035     -276.54778     -352.73467      0              2609.4885      46.162239      20.047001      20.857         19301.369      2711.3938      1504.8368      3612.2348     -168.76283     -280.76397      332.00046    
  28824500   261.33693     -351.43043     -274.85015     -351.40399      0              3256.8512      46.284383      20.047001      20.857         19352.44       1638.0853      5734.637       2397.8314     -140.33515      612.38313     -28.512676    
  28825000   249.94998     -349.23903     -275.9955      -349.22669      0              4589.9802      46.429388      20.047001      20.857         19413.07       4829.4882      3615.4522      5325.0003      1337.8402     -27.669078     -1517.2929    
  28825500   260.86702     -351.3225      -274.87991     -351.32668      0              3545.1622      46.387869      20.047001      20.857         19395.71       3710.8399      3824.8919      3099.7548     -177.07919      472.75312     -1246.9351    
  28826000   262.83531     -353.64683     -276.62747     -353.62495      0              4042.6148      46.174829      20.047001      20.857         19306.633      5184.4774      3443.1854      3500.1816      559.71776      304.16625      620.3447     
  28826500   263.78742     -354.26736     -276.96901     -354.23379      0              2895.7734      46.322611      20.047001      20.857         19368.424      4443.6416      3528.5823      715.09627      755.52782     -134.53015      28.641551    
  28827000   255.90895     -352.64098     -277.65128     -352.62991      0              3986.1299      46.477087      20.047001      20.857         19433.014      5159.8316      3947.4752      2851.0829      752.86663      428.93737      797.86032    
  28827500   261.19051     -352.79945     -276.26208     -352.79844      0              4296.8301      46.381344      20.047001      20.857         19392.981      6717.0941      2515.8829      3657.5133      531.38803     -1223.9444      566.77935    
  28828000   258.69437     -351.81484     -276.00892     -351.83778      0              2960.3002      46.425018      20.047001      20.857         19411.243      3351.5707      2062.5254      3466.8046      2243.0017     -672.03769      833.74943    
  28828500   258.47647     -353.0974      -277.35533     -353.10538      0              4344.4698      46.267432      20.047001      20.857         19345.353      2585.9811      5414.1315      5033.2969     -551.7113       1387.1325     -211.19794    
  28829000   261.69232     -350.99836     -274.31394     -351.0134       0              3424.2065      46.077281      20.047001      20.857         19265.847      4039.9452      3966.2512      2266.423      -373.83198      602.51301     -2343.4833    
  28829500   254.20146     -351.4694      -276.98005     -351.48199      0              4205.3404      46.274454      20.047001      20.857         19348.289      5921.097       2465.831       4229.0933      766.84112      1657.6155      742.34722    
  28830000   268.71612     -351.9415      -273.19888     -351.93921      0              5842.1896      46.586469      20.047001      20.857         19478.748      6723.579       4355.8005      6447.1892      677.98452     -723.78062      46.78763     
  28830500   268.24931     -353.54081     -274.93498     -353.55456      0              2648.0317      46.607049      20.047001      20.857         19487.353      3272.0274      4621.523       50.544831     -946.20456     -371.96687     -223.90089    
  28831000   270.5139      -351.48796     -272.21853     -351.49757      0              3563.96        46.28142       20.047001      20.857         19351.201      4246.4083      2782.7037      3662.7681     -72.321613      1009.3247      1906.2532    
  28831500   260.47213     -353.21374     -276.88687     -353.24366      0              4812.1127      46.386007      20.047001      20.857         19394.931      3251.2186      5087.9953      6097.1242      337.93277     -566.25052     -1076.4437    
  28832000   263.45202     -353.23861     -276.03854     -353.2711       0              3665.0107      46.473285      20.047001      20.857         19431.424      2997.9434      4251.6861      3745.4026     -210.03017     -139.93823     -128.88116    
  28832500   265.44646     -351.0202      -273.23569     -351.04228      0              5660.7161      46.274277      20.047001      20.857         19348.214      6504.2007      4849.5846      5628.3629      1441.129       831.05672      1069.1062    
  28833000   253.57331     -353.38537     -279.08008     -353.41664      0              5200.5994      46.249444      20.047001      20.857         19337.831      5562.3576      4668.1905      5371.25        473.84026     -406.53233     -1221.4181    
  28833500   264.7654      -352.68513     -275.1002      -352.71317      0              5884.9183      46.288893      20.047001      20.857         19354.326      3831.2788      8262.0621      5561.4139      1104.9339     -912.51519      1639.4125    
  28834000   262.57114     -352.08356     -275.14162     -352.10464      0              5370.717       46.253054      20.047001      20.857         19339.341      8212.9733      3981.7059      3917.4717     -525.7006      -1791.2801     -519.26083    
  28834500   252.98007     -353.17159     -279.04015     -353.1766       0              2885.9786      46.468576      20.047001      20.857         19429.455      3968.2467      2806.3879      1883.3011      663.02815     -517.07804     -2272.2539    
  28835000   263.84344     -352.49106     -275.17629     -352.51495      0              4654.2255      46.292408      20.047001      20.857         19355.796      3502.7873      4584.8128      5875.0765     -364.09523     -30.494685     -59.039982    
  28835500   259.05972     -354.96916     -279.05618     -354.99103      0              3304.3051      46.26874       20.047001      20.857         19345.9        3725.5537      3194.6506      2992.7109      977.29429      414.50121      366.83737    
  28836000   261.60876     -353.69226     -277.03232     -353.7226       0              6190.7741      46.371799      20.047001      20.857         19388.99       6939.1705      6218.4117      5414.7402     -1149.0075      358.91825      981.75121    
  28836500   263.38876     -349.90815     -272.72662     -349.94569      0              4501.2383      46.420451      20.047001      20.857         19409.333      5230.5203      3220.105       5053.0895     -1746.3997     -197.98796      39.38944     
  28837000   259.59401     -351.505       -275.43545     -351.53344      0              6281.9372      46.30278       20.047001      20.857         19360.132      4952.2141      7470.5185      6423.079      -437.92231     -623.51633     -65.705661    
  28837500   258.43611     -351.44736     -275.71712     -351.47944      0              5825.9556      46.396709      20.047001      20.857         19399.406      6941.3723      5576.1769      4960.3177      161.37082     -1033.6663      692.09296    
  28838000   258.2913      -353.38935     -277.70154     -353.46933      0              2673.9711      46.522198      20.047001      20.857         19451.876      1704.129       4906.9629      1410.8213      814.48741     -2115.5221      912.82523    
  28838500   259.95743     -354.87462     -278.69858     -354.89734      0              5753.6105      46.18403       20.047001      20.857         19310.48       5030.2651      5904.6564      6325.9101      1570.2198     -344.36222     -305.54438    
  28839000   255.61015     -350.92109     -276.01895     -350.95221      0              4730.7945      46.442006      20.047001      20.857         19418.345      4998.1271      4422.9956      4771.2609     -534.33983      2316.3172      751.75052    
  28839500   258.84135     -351.74001     -275.89102     -351.75162      0              4896.8449      46.557087      20.047001      20.857         19466.463      4330.5219      5627.3149      4732.6979     -204.96406     -1007.7374     -148.22086    
  28840000   264.35818     -348.53023     -271.06463     -348.58085      0              2894.0127      46.370744      20.047001      20.857         19388.549      4369.3409      2632.5078      1680.1895     -1459.7887     -41.187907     -589.50159    
  28840500   263.76606     -352.62132     -275.32923     -352.66616      0              6587.9963      46.184864      20.047001      20.857         19310.829      7044.2926      7123.2917      5596.4045     -384.92536      788.1411      -1580.9929    
  28841000   270.58897     -354.31653     -275.0251      -354.35754      0              4461.0139      46.272802      20.047001      20.857         19347.598      4285.1851      4702.8353      4395.0213     -769.01319     -2756.7017      998.54012    
  28841500   253.74813     -351.38581     -277.0293      -351.41098      0              5109.4698      46.488197      20.047001      20.857         19437.659      4770.8321      5276.6477      5280.9296     -1131.261       187.15769      1223.6455    
  28842000   265.44533     -353.39483     -275.61066     -353.40267      0              3447.1275      46.329166      20.047001      20.857         19371.165      2872.2377      4347.5874      3121.5574      517.83009      2012.988      -1302.9049    
  28842500   253.30756     -351.77015     -277.54274     -351.79611      0              6573.6902      46.013395      20.047001      20.857         19239.135      6982.3625      5918.0474      6820.6608      482.35956      1362.7756      111.83748    
  28843000   252.04104     -351.91054     -278.05426     -351.90474      0              3388.7413      46.112566      20.047001      20.857         19280.6        3642.2427      2506.0287      4017.9524     -529.09732     -1039.9235     -155.76831    
  28843500   258.52183     -350.42168     -274.66632     -350.45325      0              6492.8479      46.298533      20.047001      20.857         19358.356      8288.869       4986.2985      6203.3764      799.71612      621.6509      -796.59439    
  28844000   252.00167     -349.16275     -275.318       -349.18999      0              4596.5054      46.275507      20.047001      20.857         19348.729      4575.6695      5102.6059      4111.2409      767.29007     -1595.2789      1592.7734    
  28844500   257.83888     -352.40472     -276.84949     -352.42748      0              6635.2859      46.177486      20.047001      20.857         19307.744      8611.0418      6656.3657      4638.4501      199.02859      1092.7956      1674.8559    
  28845000   257.06434     -350.02645     -274.69818     -350.0404       0              3172.7711      46.030817      20.047001      20.857         19246.419      4473.3739      1950.8771      3094.0623     -1490.6148     -12.618895     -1187.7549    
  28845500   255.96144     -350.28614     -275.28106     -350.28642      0              5018.4754      46.091272      20.047001      20.857         19271.696      6119.8377      1630.1472      7305.4414      2239.1945     -958.21785     -153.58714    
  28846000   253.66981     -351.82317     -277.48961     -351.85314      0              5506.7027      46.42995       20.047001      20.857         19413.305      5353.5125      4580.5725      6586.0233      623.9598      -340.26393      672.66551    
  28846500   259.50717     -352.10477     -276.06067     -352.14117      0              2633.5884      46.231522      20.047001      20.857         19330.338      3763.9706      786.52626      3350.2684      633.17721     -1398.0164      585.78869    
  28847000   256.92715     -352.00847     -276.7204      -352.04358      0              6006.9401      46.265836      20.047001      20.857         19344.685      6990.8554      3561.1252      7468.8397     -324.32619     -1452.9513     -421.31302    
  28847500   260.22259     -351.10208     -274.84833     -351.1324       0              5115.8045      46.387123      20.047001      20.857         19395.398      7611.4447      3117.8556      4618.1132      2837.4711      741.79334      805.07475    
  28848000   262.0974      -352.33684     -275.53372     -352.3566       0              6004.4873      46.464359      20.047001      20.857         19427.692      6362.0718      5414.9846      6236.4054     -41.463412     -418.77345      737.75477    
  28848500   266.15212     -352.77013     -274.77884     -352.78343      0              4208.6524      46.511123      20.047001      20.857         19447.245      4026.1108      2699.2661      5900.5803      68.70645      -589.5056       910.12726    
  28849000   261.0082      -350.41267     -273.92872     -350.43488      0              4826.1399      46.663996      20.047001      20.857         19511.164      4446.4355      5096.8189      4935.1652     -152.29382     -663.78029     -975.37128    
  28849500   260.72119     -352.18097     -275.78112     -352.21362      0              4380.4693      46.813722      20.047001      20.857         19573.768      3652.4796      2888.3822      6600.5462     -711.51842     -1306.8337      332.68852    
  28850000   256.45635     -353.95565     -278.80554     -354.01913      0              3464.7166      46.384684      20.047001      20.857         19394.378      5262.4701      501.22434      4630.4554      564.17488     -84.127795      733.91553    
  28850500   253.50473     -348.49292     -274.20774     -348.5049       0              6172.2853      46.079725      20.047001      20.857         19266.868      6917.9357      6592.3426      5006.5775      1482.3529     -2064.9328     -944.56644    
  28851000   262.32189     -352.92526     -276.05635     -352.94414      0              2685.9887      46.482494      20.047001      20.857         19435.274      3432.0114      1487.2182      3138.7364     -809.17584     -2357.1089     -974.58128    
  28851500   255.50508     -353.94727     -279.07591     -353.93741      0              2961.4731      46.66964       20.047001      20.857         19513.524      3369.1213      2422.6232      3092.675       418.99097      1287.7754     -1247.1153    
  28852000   260.36044     -352.87828     -276.58414     -352.89506      0              4153.6402      46.33855       20.047001      20.857         19375.088      6318.1894      896.76225      5245.9689      827.95979     -299.37062     -1446.7408    
  28852500   255.52348     -349.42485     -274.5481      -349.45179      0              4783.9023      46.334071      20.047001      20.857         19373.216      5357.9397      5509.5861      3484.1811      1055.7987     -1509.1522     -459.19807    
  28853000   261.39586     -351.41787     -274.82032     -351.42597      0              4294.5281      46.615047      20.047001      20.857         19490.697      4682.9387      2857.8024      5342.8434      203.72034     -866.54599     -53.122579    
  28853500   253.80918     -351.23546     -276.86106     -351.26095      0              4265.1651      46.851588      20.047001      20.857         19589.6        4967.1682      5487.642       2340.6853     -1552.9091     -899.85669     -757.74892    
  28854000   255.0958      -351.58325     -276.83183     -351.60192      0              3933.6329      46.522661      20.047001      20.857         19452.069      5027.0003      2031.8123      4742.0859      1087.1376      1473.537      -2528.8875    
  28854500   261.84089     -350.72306     -273.9951      -350.69788      0              2837.6207      46.42466       20.047001      20.857         19411.093      4735.6484      1500.4441      2276.7697     -674.35193     -537.34501      508.53713    
  28855000   263.8352      -350.68957     -273.37721     -350.7043       0              3073.7086      46.67052       20.047001      20.857         19513.892      4201.6919      586.77772      4432.6561     -714.50876     -840.58783     -1087.0999    
  28855500   263.73499     -349.33024     -272.04725     -349.35765      0              7377.515       46.69974       20.047001      20.857         19526.109      3709.9935      10096.359      8326.1925      1346.3435     -975.43034     -1572.5589    
  28856000   262.8085      -351.49474     -274.48324     -351.54828      0              2297.2355      46.620701      20.047001      20.857         19493.061      1580.563       2749.3867      2561.7567      834.26583     -999.41999     -39.2047      
  28856500   260.95873     -352.85796     -276.38851     -352.89005      0              5309.8931      46.416755      20.047001      20.857         19407.787      6060.0346      6115.2803      3754.3644      1814.4135      1003.7886      745.2979     
  28857000   256.39123     -352.87414     -277.74311     -352.91096      0              4159.8358      46.666796      20.047001      20.857         19512.335      4461.2884      2889.5257      5128.6932      875.11775     -1044.024      -363.56652    
  28857500   254.58766     -353.82507     -279.22255     -353.84932      0              3739.4949      46.518294      20.047001      20.857         19450.243      8340.8844      287.23823      2590.3619     -521.6883      -1290.4094      312.84037    
  28858000   255.6542      -350.95252     -276.03747     -350.99583      0              3542.2335      46.563484      20.047001      20.857         19469.138      5617.3125      3672.7417      1336.6462      763.98327      958.20959     -675.3433     
  28858500   263.99297     -350.51394     -273.15536     -350.54844      0              7253.594       46.717086      20.047001      20.857         19533.362      5799.18        6818.2012      9143.4008     -638.58135     -2204.0283     -790.18337    
  28859000   259.07911     -351.27309     -275.35443     -351.29359      0              4745.2486      46.42308       20.047001      20.857         19410.432      6725.7675      4646.984       2862.9941     -575.72097      1574.0193     -174.46139    
  28859500   260.69737     -350.06377     -273.6709      -350.11806      0              3658.889       46.205217      20.047001      20.857         19319.339      2247.4222      5105.5182      3623.7266      323.54895     -729.86217     -1978.9209    
  28860000   249.01894     -351.06517     -278.09447     -351.08717      0              2527.5652      46.432834      20.047001      20.857         19414.51       4788.9075      1367.2799      1426.5083      1597.8026     -2094.8059     -195.18538    
  28860500   259.64249     -351.48195     -275.3982      -351.51506      0              3973.3581      46.683876      20.047001      20.857         19519.476      2557.1271      4320.0301      5042.917       126.60872      1282.8577     -123.19947    
  28861000   263.70857     -350.3325      -273.05725     -350.36011      0              5127.5762      46.660562      20.047001      20.857         19509.728      6264.6212      5434.6628      3683.4445     -319.34225      263.53613     -539.15277    
  28861500   256.09802     -348.24079     -273.19568     -348.30188      0              3890.047       46.600016      20.047001      20.857         19484.413      2538.8603      6254.7595      2876.5213      268.88182     -217.4447       1821.3142    
  28862000   255.31367     -352.33686     -277.52159     -352.36724      0              4198.4917      46.534768      20.047001      20.857         19457.131      4787.2312      3378.9388      4429.305      -2109.3887     -730.73521     -756.47321    
  28862500   255.80844     -350.59555     -275.6353      -350.62567      0              5335.9703      46.364879      20.047001      20.857         19386.097      6602.7449      4706.6941      4698.4717      478.28888      3080.2213      1157.7079    
  28863000   259.11055     -349.89302     -273.96514     -349.91373      0              6360.7905      46.310095      20.047001      20.857         19363.191      8473.5094      5594.0569      5014.8052     -42.561374     -2340.1668     -1146.9978    
  28863500   263.87994     -351.89794     -274.57247     -351.90405      0              5160.5537      46.347332      20.047001      20.857         19378.76       5734.8774      3876.3024      5870.4813     -282.50128      59.866258      227.5469     
  28864000   263.01606     -349.99135     -272.91903     -349.98957      0              2382.4318      46.214441      20.047001      20.857         19323.196      3254.7017      2760.0554      1132.5383      185.74637      643.5936      -1065.4415    
  28864500   260.82473     -349.28779     -272.8576      -349.36362      0              1906.1856      46.273501      20.047001      20.857         19347.89       3298.1571      3549.9423     -1129.5426      1985.9422     -1974.8319      634.15131    
  28865000   263.64988     -351.75371     -274.49566     -351.82008      0              4331.1065      46.220632      20.047001      20.857         19325.784      3358.2104      5966.6021      3668.507      -617.88257     -98.973318      44.735244    
  28865500   263.35757     -350.46952     -273.29713     -350.49687      0              6645.923       46.194886      20.047001      20.857         19315.02       8060.6415      4885.4691      6991.6584      1288.9131     -1855.5926     -397.121      
  28866000   264.67577     -351.69272     -274.13405     -351.71085      0              3733.4595      46.16297       20.047001      20.857         19301.675      6595.7528      2953.3263      1651.2995     -58.602415     -707.80664      1715.9044    
  28866500   255.77431     -349.93195     -274.98171     -349.96257      0              6613.5397      46.193528      20.047001      20.857         19314.452      5932.8671      6907.2233      7000.5286     -1606.2519      321.83217     -620.55867    
  28867000   257.79638     -349.81456     -274.27178     -349.84449      0              4551.599       46.432265      20.047001      20.857         19414.272      4856.2555      4534.3424      4264.1991      286.04523      1094.1401     -683.96619    
  28867500   264.7638      -351.64978     -274.06532     -351.67061      0              6447.2192      46.409027      20.047001      20.857         19404.556      5648.6858      6637.8549      7055.1168      785.75309     -399.18693     -2171.2061    
  28868000   252.80527     -350.35664     -276.27642     -350.41366      0              4808.7889      46.346137      20.047001      20.857         19378.261      6937.7383      3604.5559      3884.0726      9.0585516     -1470.7315      1473.0157    
  28868500   256.44431     -353.69881     -278.55223     -353.73498      0              4888.0289      46.248149      20.047001      20.857         19337.29       5120.4703      4512.5831      5031.0334      375.80206     -1117.8085     -1525.8008    
  28869000   252.93107     -350.14524     -276.02815     -350.17121      0              7143.1233      46.343148      20.047001      20.857         19377.011      7768.9822      8968.3276      4692.06        1047.2645      51.575585      1288.0991    
  28869500   267.0352      -353.3504      -275.10034     -353.36505      0              4663.3381      46.635125      20.047001      20.857         19499.092      4759.2531      3062.6783      6168.083       60.806928      887.78806      396.3999     
  28870000   261.44261     -352.02283     -275.41158     -352.05237      0              4286.2338      46.507249      20.047001      20.857         19445.625      3802.1516      5918.1117      3138.4382      388.94268     -47.511878     -43.70822     
  28870500   264.58999     -350.54254     -273.00901     -350.60764      0              3340.0096      46.272296      20.047001      20.857         19347.386      2633.0554      4239.6935      3147.2798     -842.33123      770.07665      2042.3772    
  28871000   256.33035     -349.58669     -274.47351     -349.58251      0              5877.5587      46.430712      20.047001      20.857         19413.623      7389.1864      5444.133       4799.3567      1452.7959     -403.03404     -544.71007    
  28871500   257.49637     -353.1502      -277.69534     -353.17199      0              2384.607       46.874379      20.047001      20.857         19599.129      760.34549      4104.5689      2288.9067     -1481.6961     -920.07186      456.20395    
  28872000   257.26818     -350.88413     -275.49613     -350.90352      0              4704.3778      47.01531       20.047001      20.857         19658.055      6417.3637      2817.4493      4878.3204      1636.1934      234.40989     -609.50989    
  28872500   260.34293     -351.29594     -275.00693     -351.28718      0              2421.3729      46.712023      20.047001      20.857         19531.245      2365.1827      2495.2794      2403.6566      1507.8589      149.63822      457.32122    
  28873000   266.0865      -352.82015     -274.8481      -352.84057      0              5269.6347      46.253771      20.047001      20.857         19339.641      6310.4975      4543.6037      4954.8028      80.695699     -342.78199     -94.768205    
  28873500   264.75756     -352.00849     -274.42585     -352.02922      0              4526.0922      46.481863      20.047001      20.857         19435.011      6683.6849      2773.9538      4120.638      -241.8615      -262.76154      770.43457    
  28874000   253.96641     -353.45119     -279.03072     -353.46859      0              3900.1399      46.691132      20.047001      20.857         19522.51       3691.1275      2880.5011      5128.7912      146.40856     -78.338438      492.96956    
  28874500   260.57724     -351.8422      -275.48454     -351.87337      0              3550.2462      46.481967      20.047001      20.857         19435.054      4977.0508      3374.586       2299.1019     -243.64155      14.19404       2262.9746    
  28875000   256.58422     -350.36269     -275.17511     -350.37347      0              5513.6498      46.421956      20.047001      20.857         19409.962      5759.0914      7055.8453      3726.0127      347.20954     -787.22502     -835.22747    
  28875500   261.56529     -349.02511     -272.37792     -349.04707      0              4782.7583      46.418242      20.047001      20.857         19408.409      5909.341       4290.3385      4148.5955      515.87228      68.147877     -393.61754    
  28876000   266.37156     -350.52508     -272.46949     -350.49939      0              4693.2737      46.308152      20.047001      20.857         19362.378      4473.208       6078.1417      3528.4715      2063.3052     -280.46202      1365.874     
  28876500   265.02608     -349.25201     -271.5907      -349.26653      0              5906.8749      46.347331      20.047001      20.857         19378.76       7039.1935      4420.9466      6260.4845     -956.14467     -526.47943     -352.52432    
  28877000   262.92056     -351.31601     -274.27167     -351.33929      0              4655.1107      46.544087      20.047001      20.857         19461.028      4527.359       4287.3722      5150.6008      1154.222      -418.60683     -653.67128    
  28877500   259.94446     -353.70598     -277.53374     -353.69646      0              3565.7721      46.400115      20.047001      20.857         19400.83       4177.9733      5325.2639      1194.079       170.78882     -16.264077     -359.12747    
  28878000   251.55588     -350.94915     -277.23504     -350.95422      0              3105.6013      46.200564      20.047001      20.857         19317.394      4110.2998      2114.2272      3092.277       507.16466      498.34695     -973.9116     
  28878500   255.02867     -351.15345     -276.4217      -351.15258      0              5705.7191      46.114196      20.047001      20.857         19281.281      7250.1898      5899.1274      3967.84       -1809.9471     -731.65951     -272.66974    
  28879000   256.21148     -351.05401     -275.97565     -351.1142       0              4622.5589      46.326453      20.047001      20.857         19370.03       6858.2847      3201.5092      3807.8827      909.09082     -2828.1166     -1494.564     
  28879500   260.70073     -354.20103     -277.80718     -354.22097      0              5161.2049      46.471007      20.047001      20.857         19430.471      5937.1984      3506.9009      6039.5154      510.00058      1418.1954     -1695.0338    
  28880000   260.98101     -352.3816      -275.90562     -352.39523      0              4444.4674      46.351358      20.047001      20.857         19380.444      3597.526       5979.3885      3756.4877     -1733.0561     -143.59953     -305.92738    
  28880500   260.08729     -350.81264     -274.59855     -350.8474       0              5101.3419      46.111438      20.047001      20.857         19280.128      6207.0837      4099.8764      4997.0657      235.48884     -839.68047      336.82079    
  28881000   262.401       -350.97346     -274.08138     -350.99688      0              3685.0547      46.283327      20.047001      20.857         19351.999      3198.8544      4537.5521      3318.7576      697.13887     -144.40016      156.97476    
  28881500   252.95112     -349.48924     -275.36628     -349.50882      0              3376.1793      46.580246      20.047001      20.857         19476.147      5815.0088      2731.6228      1581.9062     -390.27091     -1439.846      -234.2112     
  28882000   257.97895     -351.80252     -276.20624     -351.83342      0              3806.3045      46.686293      20.047001      20.857         19520.487      5114.3024      2544.1553      3760.4558     -121.82876      2546.9674      185.45747    
  28882500   253.53602     -350.69061     -276.39625     -350.69992      0              4318.0261      46.424245      20.047001      20.857         19410.919      4707.4977      5584.8986      2661.6821      178.17047     -1428.6825     -1141.7852    
  28883000   259.4708      -350.85336     -274.81991     -350.88104      0              5042.7584      46.562026      20.047001      20.857         19468.528      4920.4614      6325.2957      3882.5181     -990.81601     -311.68193     -176.57479    
  28883500   262.13059     -350.44531     -273.63246     -350.49558      0              3454.8373      46.789721      20.047001      20.857         19563.732      3610.137       4012.8849      2741.4901     -313.99926     -2302.2993      1100.9647    
  28884000   256.21742     -354.25501     -279.17492     -354.2846       0              4568.1951      46.66438       20.047001      20.857         19511.325      6113.4257      3191.0406      4400.1188     -540.39146     -802.43191      1016.2277    
  28884500   269.01978     -352.6259      -273.7943      -352.65527      0              5033.8145      46.593725      20.047001      20.857         19481.782      5617.8648      3666.9728      5816.6058     -693.81525      42.592668      546.69151    
  28885000   260.96465     -351.74875     -275.27756     -351.74049      0              4839.035       46.552578      20.047001      20.857         19464.578      4490.9793      5660.6503      4365.4753     -295.29324     -275.40104      851.00626    
  28885500   254.59054     -350.5264      -275.92304     -350.52257      0              3573.8927      46.726193      20.047001      20.857         19537.17       5405.0055      2378.4452      2938.2273     -638.98235     -1009.8849      431.14288    
  28886000   259.80952     -350.67247     -274.53977     -350.67462      0              6667.4947      46.359891      20.047001      20.857         19384.012      9021.3087      6985.584       3995.5914     -1315.4393     -896.26735      116.03809    
  28886500   266.26858     -350.14672     -272.12131     -350.19253      0              4256.7219      46.26236       20.047001      20.857         19343.232      6115.5237      3257.6801      3396.9621     -695.75178      241.08897      346.51641    
  28887000   260.36715     -350.73015     -274.43405     -350.75782      0              3571.0652      46.62284       20.047001      20.857         19493.956      2716.0678      2926.2417      5070.886       264.20676     -1392.9141      775.23152    
  28887500   261.48707     -351.33725     -274.71298     -351.35811      0              4136.269       46.539811      20.047001      20.857         19459.24       2461.5159      5256.1587      4691.1324      823.24032      2114.8375      909.00693    
  28888000   260.32668     -353.23618     -276.95194     -353.25027      0              3406.9786      46.254056      20.047001      20.857         19339.76       7263.6329      1760.5804      1196.7225      977.58486     -210.78225      838.89158    
  28888500   260.59415     -350.33412     -273.9715      -350.33907      0              6638.4415      46.439739      20.047001      20.857         19417.398      6516.3563      6331.915       7067.0532      520.95612      326.96515      1281.3685    
  28889000   248.50673     -349.31687     -276.49626     -349.34623      0              1847.0127      46.616471      20.047001      20.857         19491.293      1303.8319      2962.183       1275.0231      848.54312     -666.07501      146.47884    
  28889500   260.52427     -350.46531     -274.12317     -350.46356      0              3612.3791      46.470665      20.047001      20.857         19430.328      4537.3808      2282.9464      4016.8102     -1457.9396     -796.07537      2520.8809    
  28890000   261.61784     -350.78527     -274.12267     -350.80476      0              4433.1468      46.004258      20.047001      20.857         19235.314      8631.2357      1523.2928      3144.9119      386.72098     -739.64272     -44.073407    
  28890500   256.1243      -352.98488     -277.93207     -352.99261      0              4278.5715      46.526503      20.047001      20.857         19453.675      4650.2953      1926.3031      6259.116       665.45618     -32.626231      121.63491    
  28891000   262.52026     -352.5881      -275.66107     -352.60954      0              3636.8478      46.995596      20.047001      20.857         19649.813      4510.2976      5023.6537      1376.5921     -590.90206     -1768.3784      305.19653    
  28891500   262.06816     -352.90771     -276.11315     -352.92583      0              3053.3935      46.661445      20.047001      20.857         19510.097      5940.8122      2144.2235      1075.1448      2136.856      -1354.3209     -1802.9161    
  28892000   256.00598     -350.54917     -275.53104     -350.57389      0              5468.4506      46.261877      20.047001      20.857         19343.03       9364.2941      3497.9168      3543.1411     -1407.9194     -83.901484      2705.8008    
  28892500   254.91468     -349.63977     -274.94142     -349.6511       0              2257.6701      46.326662      20.047001      20.857         19370.118      4390.6958      1555.5948      826.71974      880.31131      577.57729     -597.75644    
  28893000   257.26316     -352.73659     -277.35006     -352.75644      0              3902.2415      46.252695      20.047001      20.857         19339.191      2513.7154      4924.3308      4268.6781      640.52544      18.833874     -922.69969    
  28893500   258.68206     -350.65769     -274.85537     -350.68407      0              4921.5175      46.196813      20.047001      20.857         19315.825      5106.1905      6162.2001      3496.1619      242.60474     -1415.6064     -215.09626    
  28894000   257.15924     -352.57253     -277.21645     -352.59125      0              4219.4402      46.245663      20.047001      20.857         19336.251      3356.9882      3977.7526      5323.5797      1961.6161      6.7212412      319.48824    
  28894500   262.98679     -352.92499     -275.86125     -352.92845      0              4380.8743      46.401255      20.047001      20.857         19401.307      6214.7468      3333.1636      3594.7125      811.72853     -134.37946      1594.9981    
  28895000   260.47638     -350.41971     -274.0916      -350.46337      0              3136.6258      46.545866      20.047001      20.857         19461.771      4466.346       3012.6319      1930.8995      1103.2399     -245.91901      1122.9758    
  28895500   259.11272     -351.4916      -275.56308     -351.47672      0              4748.8421      46.49554       20.047001      20.857         19440.729      6880.473       2180.292       5185.7613      1246.9742     -2295.2615     -1107.9935    
  28896000   263.61603     -350.80551     -273.55738     -350.83065      0              5252.2278      46.563594      20.047001      20.857         19469.184      7019.1437      4219.5651      4517.9746     -607.50736      210.29961      1638.9609    
  28896500   255.0547      -353.40896     -278.66958     -353.39402      0              5125.8792      46.387064      20.047001      20.857         19395.373      3329.1215      5556.5788      6491.9373      221.94702      774.7314      -646.7763     
  28897000   259.01051     -351.62476     -275.7262      -351.63651      0              4130.9878      46.544144      20.047001      20.857         19461.051      5959.0153      3591.2492      2842.6989      799.93887     -1369.4562      646.51634    
  28897500   255.56531     -351.27552     -276.38651     -351.29233      0              4303.5663      46.735425      20.047001      20.857         19541.03       4071.1913      3358.7765      5480.7311     -558.50243      63.19799      -635.58192    
  28898000   260.01929     -352.10737     -275.9132      -352.13275      0              4996.5363      46.270428      20.047001      20.857         19346.605      5331.0722      3729.3381      5929.1985     -537.88693     -939.35392      764.7638     
  28898500   257.67299     -350.60616     -275.09954     -350.63718      0              3648.1148      46.135956      20.047001      20.857         19290.38       4613.0019      3346.3451      2984.9973      1457.8615     -664.8971       141.88229    
  28899000   261.12544     -353.94665     -277.42834     -353.97043      0              4512.3388      46.323925      20.047001      20.857         19368.973      4144.3125      4288.2197      5104.4841      54.970734     -1573.3862     -453.14525    
[...]
  29860000   263.22339     -352.13852     -275.00544     -352.15308      0              3834.6979      46.061134      20.047001      20.857         19259.095      3064.1336      3922.7407      4517.2196     -197.57896      564.32375     -879.04576    
  29860500   262.19836     -352.57185     -275.73914     -352.60183      0              4994.3742      46.318476      20.047001      20.857         19366.695      5220.0721      5079.4272      4683.6234      2034.3898      236.25452      800.07422    
  29861000   260.17003     -350.19823     -273.95989     -350.20766      0              4201.0787      46.187033      20.047001      20.857         19311.736      5997.8379      2211.2404      4394.1578     -91.612094     -608.01769      1946.2682    
  29861500   260.30815     -349.91731     -273.6385      -349.94403      0              4215.8404      45.991837      20.047001      20.857         19230.121      4404.0053      3004.5149      5239.001      -1046.7367     -76.866181     -746.85882    
  29862000   269.05317     -351.25737     -272.41598     -351.28743      0              3681.1068      45.986569      20.047001      20.857         19227.918      3968.1108      2319.9619      4755.2478     -1234.4578     -374.28537     -1457.3685    
  29862500   263.66059     -350.14429     -272.8831      -350.17381      0              3818.9166      46.038307      20.047001      20.857         19249.551      5175.1278      4231.731       2049.891       558.69804     -684.38674     -1282.8968    
  29863000   260.14672     -350.41137     -274.17986     -350.42056      0              5153.0257      46.177666      20.047001      20.857         19307.82       2427.6385      7306.1002      5725.3384      407.41388      394.10596      222.0108     
  29863500   260.98466     -350.72987     -274.25282     -350.77055      0              2840.8947      46.252381      20.047001      20.857         19339.06       2223.1786      3154.4231      3145.0825      257.8215      -2585.5608      1399.3707    
  29864000   262.21431     -351.95877     -275.12139     -351.96789      0              5315.4228      45.920046      20.047001      20.857         19200.104      7053.0067      2508.687       6384.5747      1017.061       310.02762      311.75176    
  29864500   259.0613      -352.60461     -276.69116     -352.60605      0              5605.7536      45.942259      20.047001      20.857         19209.391      6350.021       3661.1752      6806.0645     -613.25342     -496.70564     -119.94574    
  29865000   263.84799     -347.03519     -269.71909     -347.07911      0              2277.6882      46.314084      20.047001      20.857         19364.859      2708.1517      1680.3025      2444.6103      826.35828      498.96621     -3122.3307    
  29865500   261.15069     -350.87224     -274.34654     -350.90634      0              6581.8253      46.277465      20.047001      20.857         19349.548      7052.7903      6808.9485      5883.7372     -1088.1516      1758.8797     -1534.289     
  29866000   267.35087     -350.54923     -272.20667     -350.58156      0              4993.9786      45.753732      20.047001      20.857         19130.564      4915.0199      4954.0914      5112.8245      769.44404     -332.12617     -1539.7535    
  29866500   267.53989     -350.47286     -272.07491     -350.4789       0              5797.2516      45.858302      20.047001      20.857         19174.287      6446.0887      6139.0918      4806.5742      34.074702     -78.550629      571.00213    
  29867000   263.22183     -350.91704     -273.78442     -350.94906      0              3379.6127      46.45522       20.047001      20.857         19423.87       4490.2662      2252.6137      3395.9581     -804.59744     -1339.0903      2296.902     
  29867500   257.63056     -349.35812     -273.86393     -349.38813      0              1711.4988      46.422814      20.047001      20.857         19410.321      3691.4191      2805.4631     -1362.3858     -1499.0475     -805.33855     -1015.5493    
  29868000   264.44704     -352.53966     -275.04802     -352.55105      0              5321.4232      46.055049      20.047001      20.857         19256.551      4341.9954      5271.357       6350.9171     -882.042       -667.05847     -688.84851    
  29868500   260.66222     -351.18161     -274.79904     -351.21037      0              7755.464       46.035556      20.047001      20.857         19248.4        5761.0655      9265.9877      8239.3389      699.26801     -626.58063     -337.65541    
  29869000   254.79259     -349.93016     -275.26758     -349.95664      0              2975.8085      46.4064        20.047001      20.857         19403.458      4001.471       3439.8596      1486.0949     -92.423215      510.45946     -659.13346    
  29869500   255.38102     -352.94993     -278.11492     -352.97367      0              3271.3913      46.510234      20.047001      20.857         19446.873      2990.9047      3240.816       3582.4533      680.34792     -460.86192     -190.8981     
  29870000   256.03695     -352.64853     -277.62132     -352.67393      0              5669.1795      46.14151       20.047001      20.857         19292.702      6105.7771      5641.349       5260.4122      2527.6509     -1047.4553      226.92245    
  29870500   258.86334     -354.27745     -278.42202     -354.28121      0              3548.59        45.850849      20.047001      20.857         19171.171      5214.7621      3233.0542      2197.9535     -1109.4959      1267.6619      431.70696    
  29871000   257.55997     -352.8708      -277.3973      -352.89613      0              5020.5764      46.139017      20.047001      20.857         19291.66       5712.4212      4042.4399      5306.8682     -1093.7565     -1269.2338      2158.6427    
  29871500   252.32262     -352.38764     -278.44886     -352.41742      0              2847.0805      46.447231      20.047001      20.857         19420.53       3796.0801      2137.1828      2607.9788     -1061.278       49.278909     -1932.4147    
  29872000   263.70993     -353.06282     -275.78717     -353.08275      0              5013.1448      46.242584      20.047001      20.857         19334.963      5530.8973      4151.6033      5356.9337     -300.87138      2569.9028      1907.8965    
  29872500   259.09389     -352.12456     -276.20157     -352.14681      0              2970.5192      46.296204      20.047001      20.857         19357.383      3307.8672      1632.1895      3971.5008      690.18435      1457.4387      307.65333    
  29873000   251.43317     -351.00185     -277.3237      -351.02354      0              1891.4908      46.628401      20.047001      20.857         19496.281      3184.5187      1687.286       802.66767     -475.4618       1059.9734      713.35232    
  29873500   262.23898     -352.25718     -275.41257     -352.3056       0              1702.0527      46.457931      20.047001      20.857         19425.004      2781.2544      933.81603      1391.0877      83.624198      2402.3894      727.48701    
  29874000   261.06635     -352.56642     -276.06543     -352.59518      0              3833.9808      46.081934      20.047001      20.857         19267.792      4972.1149      2834.3152      3695.5123     -52.108452     -39.058353      1402.9359    
  29874500   255.60981     -354.49263     -279.59058     -354.51351      0              4580.0289      46.289242      20.047001      20.857         19354.472      6563.4158      4115.8003      3060.8704      120.33814     -261.72522     -55.676536    
  29875000   256.94345     -348.94223     -273.64939     -348.99658      0              3778.7621      46.44019       20.047001      20.857         19417.586      4084.6891      5349.8143      1901.7828     -858.09001     -137.56426     -403.01287    
  29875500   264.06736     -352.00368     -274.6233      -352.03189      0              5818.8973      46.294305      20.047001      20.857         19356.589      6058.2263      4697.6081      6700.8576      1533.4613      776.13148      1012.778     
  29876000   259.72107     -351.43344     -275.32666     -351.47434      0              3695.5572      46.138026      20.047001      20.857         19291.245      2579.9841      5718.8802      2787.8073      1072.2501     -81.573671      905.41752    
  29876500   264.96196     -352.36834     -274.72581     -352.38798      0              7227.0577      46.020597      20.047001      20.857         19242.146      8901.7152      5737.0783      7042.3795     -193.16563      342.9643       1448.8953    
  29877000   256.67427     -351.44637     -276.23241     -351.48887      0              3802.7718      46.383899      20.047001      20.857         19394.05       2431.0201      3209.4077      5767.8876      654.79469      456.52558     -393.651      
  29877500   263.99771     -350.06752     -272.70754     -350.10954      0              4029.4552      46.475064      20.047001      20.857         19432.168      5158.4962      2414.4504      4515.4191      277.09873      876.90565     -878.81469    
  29878000   255.64193     -351.61002     -276.69856     -351.63215      0              4933.6395      46.253935      20.047001      20.857         19339.709      5083.8006      3942.7576      5774.3602      682.92891      431.70264     -761.11876    
  29878500   259.02163     -355.15974     -279.25792     -355.18936      0              4935.6168      45.96094       20.047001      20.857         19217.202      3527.8496      7308.2804      3970.7203     -679.24623      66.267169      173.95259    
  29879000   256.59852     -354.6725      -279.48073     -354.69976      0              6177.299       46.090114      20.047001      20.857         19271.212      6098.2989      5371.7378      7061.8603     -626.52875      721.49408      298.02126    
  29879500   261.87955     -352.0287      -275.28942     -352.0708       0              3736.2227      46.356074      20.047001      20.857         19382.415      5450.8132      2691.5675      3066.2874     -5.5605781     -99.354423     -108.91107    
  29880000   259.93181     -351.19253     -275.024       -351.21291      0              4550.2728      46.157284      20.047001      20.857         19299.298      4446.2833      5889.6332      3314.9021     -148.68714      2696.9781     -1018.9684    
  29880500   256.31929     -352.07399     -276.96405     -352.09465      0              5405.1612      46.166194      20.047001      20.857         19303.023      6237.5997      5123.602       4854.2819      420.70358     -406.21848      1342.2527    
  29881000   266.25497     -351.8102      -273.78877     -351.82963      0              3506.6521      46.233355      20.047001      20.857         19331.104      2748.0758      3394.7048      4377.1757     -747.23773      1315.7547     -1133.1752    
  29881500   258.20661     -353.41545     -277.75246     -353.50554      0              4286.1795      46.152486      20.047001      20.857         19297.291      4691.6939      6115.374       2051.4707      322.42007      1614.935      -423.30029    
  29882000   252.03239     -352.52306     -278.66932     -352.54         0              4099.7549      45.906278      20.047001      20.857         19194.347      4941.1297      1365.8752      5992.2597      802.479       -1562.5013     -1446.5266    
  29882500   258.36277     -350.76778     -275.05903     -350.80863      0              3289.3195      46.129832      20.047001      20.857         19287.819      4923.2067      2199.4746      2745.2771      105.44151     -287.82101     -786.31849    
  29883000   263.72347     -351.44918     -274.16956     -351.47616      0              5677.8454      46.064893      20.047001      20.857         19260.667      5098.814       6622.4271      5312.2951      2256.4749     -152.73527      1084.9007    
  29883500   262.78222     -351.90902     -274.90522     -351.93308      0              7270.9137      45.787201      20.047001      20.857         19144.558      7897.0368      7792.4333      6123.271       25.869499      856.03114     -706.30413    
  29884000   266.24968     -353.49967     -275.4798      -353.51882      0              3496.3465      46.154473      20.047001      20.857         19298.122      4583.3893      3756.2581      2149.3921     -56.85422       1167.4104      927.54824    
  29884500   264.53732     -351.27703     -273.75893     -351.30222      0              6283.4381      46.321879      20.047001      20.857         19368.118      5860.0524      4163.3189      8826.9431      927.71363      697.72421     -1024.1578    
  29885000   255.59566     -351.28464     -276.38674     -351.31251      0              5858.0965      45.901357      20.047001      20.857         19192.289      8510.362       5044.3281      4019.5993      790.88489      2497.6927      632.09057    
  29885500   259.96116     -354.22354     -278.04641     -354.25055      0              4624.69        45.957117      20.047001      20.857         19215.604      6270.4399      3303.6078      4300.0223      2641.1462     -843.65775     -70.80882     
  29886000   262.25122     -354.38369     -277.5355      -354.45363      0              5908.708       46.128528      20.047001      20.857         19287.274      6887.5181      4292.5455      6546.0603      1050.5445      661.35663     -1738.6663    
  29886500   262.59551     -351.93435     -274.98526     -351.96561      0              4429.8441      46.262569      20.047001      20.857         19343.319      6909.0684      3712.9102      2667.5538     -770.68266      467.59125      155.69276    
  29887000   259.16185     -350.34896     -274.40605     -350.38088      0              4788.3263      46.488571      20.047001      20.857         19437.815      4365.7311      6223.2587      3775.9891      901.98028     -1038.005      -1000.1797    
  29887500   259.17298     -348.55697     -272.6108      -348.56279      0              4462.9149      45.954085      20.047001      20.857         19214.336      6253.3326      3042.4741      4092.9378      118.34918      964.21393      65.500304    
  29888000   268.9874      -349.62153     -270.79941     -349.63929      0              4950.9987      46.002425      20.047001      20.857         19234.548      4515.7186      5013.4514      5323.826       844.51361      77.755647      454.33215    
  29888500   264.38847     -350.97502     -273.50054     -351.04861      0              3179.7046      46.548614      20.047001      20.857         19462.921      2139.1685      3537.5027      3862.4425     -582.36372      359.00871      2538.8166    
  29889000   265.80542     -353.54344     -275.65375     -353.57239      0              3582.0099      46.360709      20.047001      20.857         19384.353      5270.6277      2178.5206      3296.8814      342.55494      1539.2091      1202.8982    
  29889500   253.19705     -351.93925     -277.74422     -351.93993      0              3516.2447      46.22264       20.047001      20.857         19326.624      3166.4167      3360.2114      4022.1061      35.987391     -127.68381     -0.75066694   
  29890000   253.44414     -351.88704     -277.6196      -351.91145      0              5542.2454      46.194484      20.047001      20.857         19314.851      5101.6413      7728.4453      3796.6495      1129.0697     -702.13437      114.74392    
  29890500   255.04021     -350.07073     -275.33559     -350.08573      0              5622.7777      46.408826      20.047001      20.857         19404.472      7857.7289      3954.9503      5055.6538      279.2372       1240.5761      1413.5028    
  29891000   259.12783     -349.70753     -273.77459     -349.71615      0              3250.151       46.511669      20.047001      20.857         19447.473      1218.319       3288.0086      5244.1255      971.81874      631.32161      480.41023    
  29891500   257.41611     -348.84932     -273.41797     -348.87663      0              3495.3966      46.296158      20.047001      20.857         19357.363      5531.8808      2222.4611      2731.8479      705.45148      416.56219      762.14405    
  29892000   255.84302     -350.16996     -275.19957     -350.19499      0              3836.5056      46.384314      20.047001      20.857         19394.223      5212.7968      5407.7409      888.97926      637.99373     -1046.0497     -76.08606     
  29892500   254.8688      -352.83955     -278.15464     -352.86327      0              4645.2724      46.498307      20.047001      20.857         19441.886      5444.8606      5116.7184      3374.2384     -653.18108     -584.16542      323.06625    
  29893000   265.42727     -353.54904     -275.77015     -353.57708      0              2911.3923      46.367077      20.047001      20.857         19387.016      4256.2176      2918.071       1559.8884      90.522861     -245.36547      361.23575    
  29893500   262.00011     -351.88045     -275.10584     -351.92024      0              7167.8969      46.179737      20.047001      20.857         19308.686      6276.132       6949.3614      8278.1972     -1030.1953      168.9931       140.18157    
  29894000   262.10471     -349.33755     -272.53229     -349.34577      0              3747.8702      46.186251      20.047001      20.857         19311.409      6714.7647      3179.4773      1349.3686     -821.11936     -2118.4508     -1457.0063    
  29894500   276.12247     -353.39212     -272.47919     -353.4047       0              2539.3018      46.62974       20.047001      20.857         19496.841      2766.6385     -264.9373       5116.2042      1215.0592      23.417938      831.75381    
  29895000   263.82339     -353.07431     -275.76542     -353.07928      0              5319.2767      46.694256      20.047001      20.857         19523.816      7887.8311      4677.6647      3392.3342     -672.21021     -1162.4941      680.39033    
  29895500   252.70434     -352.99553     -278.94488     -353.02294      0              4529.3933      46.205821      20.047001      20.857         19319.592      4989.4994      4655.7084      3942.9719     -1457.6529     -352.08204      1007.7041    
  29896000   252.91929     -353.3067      -279.19306     -353.32208      0              5135.6748      45.962572      20.047001      20.857         19217.884      7744.3056      4676.6102      2986.1087      282.59369      295.06419     -1278.0073    
  29896500   264.6118      -355.43559     -277.89566     -355.46258      0              5265.0519      46.263716      20.047001      20.857         19343.799      4709.3344      6268.4784      4817.3429      864.4922       1432.1414     -673.85597    
  29897000   248.70973     -354.15979     -281.27969     -354.18462      0              2570.8907      46.420526      20.047001      20.857         19409.364      187.59861      3874.3784      3650.6951      163.04849     -327.56824      452.4616     
  29897500   252.20426     -352.28586     -278.38176     -352.27672      0              6423.9226      46.207379      20.047001      20.857         19320.243      6889.6432      8178.7951      4203.3296      1240.8395      59.958457      484.04992    
  29898000   255.24488     -353.22458     -278.42947     -353.2544       0              5892.9201      46.179219      20.047001      20.857         19308.469      4886.271       7003.0489      5789.4404     -614.36093      106.44938      18.037181    
  29898500   261.9579      -353.29936     -276.53711     -353.32644      0              3674.1705      46.259606      20.047001      20.857         19342.08       2228.5624      5323.3863      3470.5628     -624.48125     -2293.0378      1643.3955    
ERROR on proc 0: Cannot open restart file restart.lmp.0: Permission denied (../write_restart.cpp:233)
Last command: run             40000000 upto
