LAMMPS data file via MDAnalysis

        2016  atoms
           0  bonds
           0  angles
           0  dihedrals
           0  impropers

           2  atom types
           0  bond types
           0  angle types
           0  dihedral types
           0  improper types

0.000000 18.091984 xlo xhi
0.000000 47.303684 ylo yhi
0.000000 19.419474 zlo zhi
-0.134122 -6.556618 0.100033 xy xz yz


Masses

1 15.999000
2 1.008000

Atoms

1 0 1 -1.179400 0.472097 8.536387 12.765174
2 0 2 0.589700 0.910183 7.686778 12.814301
3 0 2 0.589700 0.815659 9.027047 13.511787
4 0 1 -1.179400 6.206852 0.885908 2.471080
5 0 2 0.589700 6.449700 0.089906 1.998232
6 0 2 0.589700 6.779924 1.562951 2.111366
7 0 1 -1.179400 5.980332 7.093964 14.317809
8 0 2 0.589700 5.388044 6.611918 14.894905
9 0 2 0.589700 5.527431 7.919154 14.144266
10 0 1 -1.179400 6.390276 -0.635664 5.193961
11 0 2 0.589700 6.568408 -0.138561 4.395606
12 0 2 0.589700 5.440509 -0.754715 5.195645
13 0 1 -1.179400 -3.078514 19.787264 0.779920
14 0 2 0.589700 -2.896622 18.999317 1.292008
15 0 2 0.589700 14.480471 19.494364 0.093513
16 0 1 -1.179400 7.549419 4.869373 19.003010
17 0 2 0.589700 -9.660026 4.980729 19.060863
18 0 2 0.589700 7.252872 5.608995 18.472723
19 0 1 -1.179400 -7.062797 6.027814 14.002110
20 0 2 0.589700 -7.572801 5.862566 14.795091
21 0 2 0.589700 -6.151058 5.992604 14.291466
22 0 1 -1.179400 -4.888381 5.620453 11.227571
23 0 2 0.589700 -5.785373 5.495402 10.917727
24 0 2 0.589700 -4.749193 4.909380 11.853024
25 0 1 -1.179400 -1.085520 15.635719 9.812948
26 0 2 0.589700 -0.671662 14.786218 9.660471
27 0 2 0.589700 -1.040914 16.079813 8.966180
28 0 1 -1.179400 5.551052 13.307451 17.534132
29 0 2 0.589700 5.865119 13.760143 18.316849
30 0 2 0.589700 6.347628 13.045835 17.072340
31 0 1 -1.179400 -3.493871 -0.641039 17.677595
32 0 2 0.589700 -4.435868 -0.480994 17.620518
33 0 2 0.589700 -3.171213 0.035136 18.273306
34 0 1 -1.179400 -4.634553 6.072680 15.150978
35 0 2 0.589700 -4.620040 5.161268 15.443012
36 0 2 0.589700 -3.730303 6.257869 14.897462
37 0 1 -1.179400 2.068803 9.653313 2.351221
38 0 2 0.589700 2.817152 9.142682 2.660158
39 0 2 0.589700 1.304999 9.198780 2.706495
40 0 1 -1.179400 0.252848 15.975751 18.752392
41 0 2 0.589700 7.450620 15.418266 -0.012060
42 0 2 0.589700 -0.689357 15.845590 18.859827
43 0 1 -1.179400 -4.099802 3.555167 5.064201
44 0 2 0.589700 -4.662204 4.321992 4.955266
45 0 2 0.589700 -4.688275 2.808382 4.953758
46 0 1 -1.179400 1.411982 18.213669 17.774166
47 0 2 0.589700 0.979806 18.852266 18.341278
48 0 2 0.589700 0.935930 17.397230 17.925751
49 0 1 -1.179400 1.982281 9.217646 10.360174
50 0 2 0.589700 1.353581 9.109417 11.073795
51 0 2 0.589700 2.404526 10.058092 10.537744
52 0 1 -1.179400 0.276664 8.433567 4.143134
53 0 2 0.589700 -0.092559 7.553346 4.072072
54 0 2 0.589700 -0.440288 8.967620 4.485149
55 0 1 -1.179400 -4.659803 3.465371 13.019413
56 0 2 0.589700 -5.526996 3.109563 13.213325
57 0 2 0.589700 -4.231621 3.532535 13.872873
58 0 1 -1.179400 7.193469 12.951711 3.178673
59 0 2 0.589700 7.224888 13.728829 3.736596
60 0 2 0.589700 7.728551 12.304623 3.638198
61 0 1 -1.179400 -3.027960 12.933988 8.609415
62 0 2 0.589700 -3.547883 12.329594 9.139124
63 0 2 0.589700 -3.295418 13.803897 8.905880
64 0 1 -1.179400 4.836077 22.419270 2.287098
65 0 2 0.589700 5.740206 22.725330 2.358612
66 0 2 0.589700 4.617937 22.107883 3.165550
67 0 1 -1.179400 6.621311 18.422419 18.294529
68 0 2 0.589700 6.897460 17.716543 18.879057
69 0 2 0.589700 5.679136 18.502453 18.443304
70 0 1 -1.179400 3.167116 -0.852010 1.991037
71 0 2 0.589700 3.475846 -0.026207 1.618329
72 0 2 0.589700 3.661520 46.035336 2.338273
73 0 1 -1.179400 -1.475657 4.187550 17.109358
74 0 2 0.589700 -1.230702 3.263136 17.069180
75 0 2 0.589700 -1.944635 4.275704 17.939129
76 0 1 -1.179400 3.969969 4.089815 0.173202
77 0 2 0.589700 4.323377 4.843237 0.646108
78 0 2 0.589700 -3.691283 4.325562 19.258915
79 0 1 -1.179400 8.743860 1.645028 9.175610
80 0 2 0.589700 8.032065 1.261656 9.688051
81 0 2 0.589700 8.453209 2.538314 8.991959
82 0 1 -1.179400 -1.753889 12.028798 2.301419
83 0 2 0.589700 -0.979773 11.827259 2.827116
84 0 2 0.589700 -2.491009 11.885926 2.895113
85 0 1 -1.179400 12.580822 -0.228083 5.364399
86 0 2 0.589700 12.501901 0.378153 4.627886
87 0 2 0.589700 11.953999 -0.924830 5.169909
88 0 1 -1.179400 -7.615487 7.533312 17.764683
89 0 2 0.589700 -8.259682 7.980623 17.215916
90 0 2 0.589700 -6.783677 7.956320 17.551664
91 0 1 -1.179400 2.458617 17.336861 10.116968
92 0 2 0.589700 2.359832 17.892454 9.343817
93 0 2 0.589700 1.784386 17.645678 10.722170
94 0 1 -1.179400 -5.422098 4.040300 18.400318
95 0 2 0.589700 -6.269950 4.271515 18.779682
96 0 2 0.589700 -5.633943 3.688839 17.535555
97 0 1 -1.179400 3.559083 -0.410769 5.484887
98 0 2 0.589700 3.098907 -0.007025 6.220720
99 0 2 0.589700 2.671618 46.206982 5.178242
100 0 1 -1.179400 0.471271 18.721123 11.407327
101 0 2 0.589700 -0.440487 18.465651 11.547543
102 0 2 0.589700 0.520957 19.620541 11.730966
103 0 1 -1.179400 1.895117 5.231389 5.945133
104 0 2 0.589700 2.654747 4.822089 5.530818
105 0 2 0.589700 1.807434 4.780083 6.784689
106 0 1 -1.179400 3.752070 6.361890 15.711229
107 0 2 0.589700 4.030992 5.662468 16.302162
108 0 2 0.589700 3.876143 7.165874 16.215605
109 0 1 -1.179400 -1.576068 4.153292 2.618780
110 0 2 0.589700 -1.178199 4.713378 3.285271
111 0 2 0.589700 -1.795051 3.345699 3.083556
112 0 1 -1.179400 5.281489 5.290244 7.839873
113 0 2 0.589700 4.569025 5.921309 7.941613
114 0 2 0.589700 5.102089 4.858376 7.004695
115 0 1 -1.179400 4.465562 3.160922 14.046184
116 0 2 0.589700 3.914825 2.609476 13.490484
117 0 2 0.589700 5.285267 3.248962 13.559805
118 0 1 -1.179400 9.613340 4.017138 6.377913
119 0 2 0.589700 9.122917 4.068895 7.198305
120 0 2 0.589700 10.303855 3.377290 6.551062
121 0 1 -1.179400 -6.988505 3.018802 16.363169
122 0 2 0.589700 -7.564973 2.348629 16.730247
123 0 2 0.589700 -6.740270 2.677494 15.504032
124 0 1 -1.179400 -1.913892 2.444298 6.660290
125 0 2 0.589700 -1.282474 2.450090 5.940909
126 0 2 0.589700 -2.656900 2.950328 6.331532
127 0 1 -1.179400 0.781752 5.663972 16.974871
128 0 2 0.589700 1.519251 5.121110 16.696299
129 0 2 0.589700 0.014215 5.103917 16.858984
130 0 1 -1.179400 -0.332410 1.606801 17.034407
131 0 2 0.589700 -0.067285 0.968114 17.696213
132 0 2 0.589700 0.142723 1.346154 16.245394
133 0 1 -1.179400 7.279918 19.502750 15.994504
134 0 2 0.589700 7.018369 18.954660 16.734365
135 0 2 0.589700 8.216783 19.335726 15.891468
136 0 1 -1.179400 -5.175571 10.146936 6.575190
137 0 2 0.589700 -4.593568 9.501354 6.174326
138 0 2 0.589700 12.360692 10.371529 5.883269
139 0 1 -1.179400 -0.436131 5.668602 4.550540
140 0 2 0.589700 0.451552 5.540389 4.884922
141 0 2 0.589700 -0.985142 5.702265 5.333922
142 0 1 -1.179400 -5.511724 0.106335 9.801033
143 0 2 0.589700 -6.137248 0.734714 10.161671
144 0 2 0.589700 -5.997301 -0.347085 9.111947
145 0 1 -1.179400 -3.339241 4.751338 8.799251
146 0 2 0.589700 -3.603210 5.319646 9.522823
147 0 2 0.589700 -2.621160 4.227839 9.154945
148 0 1 -1.179400 -1.005747 15.556702 4.259241
149 0 2 0.589700 -1.647015 15.238597 3.623781
150 0 2 0.589700 -1.190066 15.059080 5.055867
151 0 1 -1.179400 8.731704 -0.336078 7.390427
152 0 2 0.589700 8.994297 0.461051 7.850652
153 0 2 0.589700 8.870917 -0.135743 6.464839
154 0 1 -1.179400 12.335061 46.141747 2.094709
155 0 2 0.589700 12.691273 -0.468280 1.438037
156 0 2 0.589700 12.002917 45.384216 1.613024
157 0 1 -1.179400 5.268654 -0.791263 17.477665
158 0 2 0.589700 5.665774 -0.143770 16.895206
159 0 2 0.589700 5.690898 45.918243 17.700125
160 0 1 -1.179400 1.212971 1.970158 0.682421
161 0 2 0.589700 1.131390 1.161786 0.176393
162 0 2 0.589700 1.205610 2.666251 0.025463
163 0 1 -1.179400 -1.236343 8.768138 10.651632
164 0 2 0.589700 -0.749305 8.712543 11.473785
165 0 2 0.589700 -1.549689 9.671973 10.618969
166 0 1 -1.179400 -3.492306 14.964403 3.058564
167 0 2 0.589700 -3.744040 14.470129 2.278476
168 0 2 0.589700 -3.719064 14.390211 3.790061
169 0 1 -1.179400 13.982471 5.409657 2.286949
170 0 2 0.589700 14.156784 5.308874 1.351166
171 0 2 0.589700 -3.583077 4.788394 2.709774
172 0 1 -1.179400 -1.375285 2.838737 9.396848
173 0 2 0.589700 -1.564869 2.484478 8.528066
174 0 2 0.589700 -2.060320 2.476231 9.958575
175 0 1 -1.179400 5.204430 14.044482 8.602941
176 0 2 0.589700 4.770611 13.200216 8.479690
177 0 2 0.589700 5.996783 13.837125 9.098327
178 0 1 -1.179400 -0.508191 16.436563 14.839106
179 0 2 0.589700 -0.090024 16.198393 14.011674
180 0 2 0.589700 -0.329380 17.371668 14.937908
181 0 1 -1.179400 0.624132 1.326080 10.687671
182 0 2 0.589700 1.488637 1.729173 10.607875
183 0 2 0.589700 0.020324 1.982222 10.339689
184 0 1 -1.179400 -2.496240 -0.109029 5.448246
185 0 2 0.589700 -3.315084 -0.408045 5.843606
186 0 2 0.589700 -2.265940 0.679043 5.940273
187 0 1 -1.179400 12.352715 7.907906 1.132895
188 0 2 0.589700 12.081354 7.106097 0.686072
189 0 2 0.589700 13.227791 8.089315 0.790013
190 0 1 -1.179400 0.201841 -0.075671 19.113766
191 0 2 0.589700 1.085592 -0.443302 19.121025
192 0 2 0.589700 -0.373420 -0.835409 19.023951
193 0 1 -1.179400 2.536968 12.703811 15.256717
194 0 2 0.589700 2.022426 13.467191 15.518789
195 0 2 0.589700 3.399783 13.058199 15.041816
196 0 1 -1.179400 0.529461 22.004257 16.749447
197 0 2 0.589700 -0.355595 22.089931 16.395090
198 0 2 0.589700 0.428561 21.434509 17.511951
199 0 1 -1.179400 12.583261 6.133394 5.146755
200 0 2 0.589700 12.464930 6.033705 6.091367
201 0 2 0.589700 -4.930880 6.835772 5.058405
202 0 1 -1.179400 11.078289 19.052088 6.367396
203 0 2 0.589700 11.973012 19.220263 6.071728
204 0 2 0.589700 11.135969 18.227348 6.849737
205 0 1 -1.179400 8.582012 15.050745 4.474572
206 0 2 0.589700 8.548409 16.002937 4.565976
207 0 2 0.589700 9.263374 14.896367 3.820244
208 0 1 -1.179400 -5.225094 20.780977 18.341715
209 0 2 0.589700 -5.794499 20.021139 18.220833
210 0 2 0.589700 -5.205165 20.917664 19.288897
211 0 1 -1.179400 0.030092 2.264208 4.733944
212 0 2 0.589700 0.436322 2.871964 4.116037
213 0 2 0.589700 -0.083153 1.455051 4.235326
214 0 1 -1.179400 4.910895 15.501846 3.117375
215 0 2 0.589700 4.217905 16.107855 3.379525
216 0 2 0.589700 5.646081 16.066551 2.879018
217 0 1 -1.179400 11.164367 8.457910 3.602227
218 0 2 0.589700 11.108609 7.578962 3.977106
219 0 2 0.589700 11.591994 8.330926 2.755323
220 0 1 -1.179400 -2.195875 9.952450 8.092257
221 0 2 0.589700 -2.449120 10.871015 8.001323
222 0 2 0.589700 -1.279922 9.982247 8.368614
223 0 1 -1.179400 6.514968 9.128244 1.666129
224 0 2 0.589700 5.930596 8.939116 0.931982
225 0 2 0.589700 6.165682 9.932579 2.049829
226 0 1 -1.179400 -3.907726 15.441735 8.227907
227 0 2 0.589700 -3.594063 15.887912 7.441297
228 0 2 0.589700 -4.045838 16.144138 8.863316
229 0 1 -1.179400 -8.299178 18.712505 15.211082
230 0 2 0.589700 -8.403396 17.792685 14.967716
231 0 2 0.589700 -7.769332 19.088205 14.507991
232 0 1 -1.179400 3.302320 11.942656 8.269841
233 0 2 0.589700 3.881386 11.250078 7.951705
234 0 2 0.589700 3.140362 11.718054 9.186112
235 0 1 -1.179400 8.747930 0.919250 12.875419
236 0 2 0.589700 9.045458 0.472215 12.083046
237 0 2 0.589700 9.036163 0.354291 13.592320
238 0 1 -1.179400 -3.640344 8.029860 5.731579
239 0 2 0.589700 -3.394122 7.945786 4.810417
240 0 2 0.589700 -3.037868 7.448152 6.195090
241 0 1 -1.179400 -1.804631 10.058031 4.859840
242 0 2 0.589700 -2.226970 9.666617 5.624461
243 0 2 0.589700 -2.513277 10.504677 4.396650
244 0 1 -1.179400 5.728374 11.585775 12.036222
245 0 2 0.589700 6.465244 10.989264 12.168139
246 0 2 0.589700 5.508467 11.893643 12.915474
247 0 1 -1.179400 3.941078 1.769672 3.591273
248 0 2 0.589700 4.661101 1.239299 3.249982
249 0 2 0.589700 3.478312 1.187091 4.193492
250 0 1 -1.179400 9.272818 17.814259 4.543380
251 0 2 0.589700 8.586200 18.479984 4.582882
252 0 2 0.589700 9.938193 18.118814 5.160425
253 0 1 -1.179400 9.490774 17.247780 1.646336
254 0 2 0.589700 10.074467 17.563768 2.336030
255 0 2 0.589700 9.867825 17.591755 0.836560
256 0 1 -1.179400 6.216626 1.727072 6.625087
257 0 2 0.589700 6.758138 2.216949 6.006216
258 0 2 0.589700 6.233457 0.827399 6.298792
259 0 1 -1.179400 2.764898 17.566463 13.617412
260 0 2 0.589700 3.100669 16.850605 13.077973
261 0 2 0.589700 1.839730 17.631777 13.380706
262 0 1 -1.179400 10.633291 12.050497 8.048348
263 0 2 0.589700 11.381557 12.385342 7.554180
264 0 2 0.589700 10.083927 12.819077 8.202196
265 0 1 -1.179400 2.185914 3.695911 15.363400
266 0 2 0.589700 3.024343 3.516663 14.937797
267 0 2 0.589700 2.202689 3.165116 16.159756
268 0 1 -1.179400 8.526305 13.100440 13.514471
269 0 2 0.589700 9.474217 12.967579 13.520984
270 0 2 0.589700 8.406222 13.951990 13.094216
271 0 1 -1.179400 10.509258 16.349442 7.464082
272 0 2 0.589700 10.049074 15.510667 7.434743
273 0 2 0.589700 10.370187 16.668392 8.355796
274 0 1 -1.179400 7.813606 8.721557 19.139574
275 0 2 0.589700 -2.629025 8.948257 -0.033376
276 0 2 0.589700 7.849339 8.169860 18.358191
277 0 1 -1.179400 -4.558068 11.455552 10.487781
278 0 2 0.589700 -4.637754 11.025732 11.339323
279 0 2 0.589700 -5.266837 12.098760 10.476379
280 0 1 -1.179400 10.922683 5.060909 10.038767
281 0 2 0.589700 11.208394 4.175109 9.815400
282 0 2 0.589700 10.334359 4.942451 10.784474
283 0 1 -1.179400 -7.242623 18.934929 18.085037
284 0 2 0.589700 -7.834150 18.931742 17.332497
285 0 2 0.589700 -7.801548 18.715757 18.830555
286 0 1 -1.179400 8.629623 14.011898 7.168447
287 0 2 0.589700 8.193995 14.618014 7.767660
288 0 2 0.589700 8.561926 14.431902 6.310990
289 0 1 -1.179400 0.424488 11.507050 3.803607
290 0 2 0.589700 1.019877 10.915809 3.343013
291 0 2 0.589700 -0.107638 10.931668 4.353141
292 0 1 -1.179400 -4.837282 22.005198 7.097068
293 0 2 0.589700 -4.855490 21.400879 6.354997
294 0 2 0.589700 -5.736793 22.010592 7.424305
295 0 1 -1.179400 8.461017 20.494625 2.251158
296 0 2 0.589700 8.008072 20.067251 2.978076
297 0 2 0.589700 9.389863 20.339659 2.422795
298 0 1 -1.179400 4.257807 8.322803 11.325843
299 0 2 0.589700 3.428682 8.578335 10.921508
300 0 2 0.589700 4.168939 7.382657 11.482008
301 0 1 -1.179400 12.631392 15.731755 5.494009
302 0 2 0.589700 11.987351 15.954874 6.166063
303 0 2 0.589700 -4.766379 16.274817 5.700797
304 0 1 -1.179400 9.886295 8.557329 10.269528
305 0 2 0.589700 10.717163 8.744894 9.832826
306 0 2 0.589700 9.276930 9.204266 9.914072
307 0 1 -1.179400 2.062603 6.327439 2.112812
308 0 2 0.589700 2.596801 6.713669 2.806845
309 0 2 0.589700 1.891530 5.434046 2.410715
310 0 1 -1.179400 -0.032734 19.050413 15.546196
311 0 2 0.589700 0.512147 18.865484 16.311142
312 0 2 0.589700 0.521537 19.588757 14.981235
313 0 1 -1.179400 -4.616560 19.758215 5.251400
314 0 2 0.589700 -3.729823 19.650620 5.595428
315 0 2 0.589700 -4.492138 20.139126 4.382117
316 0 1 -1.179400 11.030722 5.687893 0.045443
317 0 2 0.589700 11.452826 5.301357 0.812671
318 0 2 0.589700 4.357496 4.989238 18.736530
319 0 1 -1.179400 -3.112977 14.813074 11.521140
320 0 2 0.589700 -2.934977 15.186789 12.384201
321 0 2 0.589700 -2.442501 15.191889 10.952650
322 0 1 -1.179400 -2.490117 -0.246952 13.091656
323 0 2 0.589700 -2.569960 0.184033 13.942592
324 0 2 0.589700 -1.562700 -0.473900 13.023674
325 0 1 -1.179400 7.628502 16.259851 8.481467
326 0 2 0.589700 8.410964 16.724421 8.778357
327 0 2 0.589700 7.547519 16.492819 7.556589
328 0 1 -1.179400 4.084311 16.227247 7.088994
329 0 2 0.589700 4.790062 16.849869 6.914472
330 0 2 0.589700 4.464991 15.598800 7.702456
331 0 1 -1.179400 -3.531716 12.772592 4.968990
332 0 2 0.589700 -2.824279 12.849408 5.609197
333 0 2 0.589700 -4.333283 12.838348 5.488026
334 0 1 -1.179400 11.393528 21.471119 0.193450
335 0 2 0.589700 11.431677 20.872210 0.939140
336 0 2 0.589700 10.509560 21.836983 0.224488
337 0 1 -1.179400 -0.535239 18.152203 4.493232
338 0 2 0.589700 0.311335 18.309587 4.911291
339 0 2 0.589700 -0.587453 17.200289 4.407876
340 0 1 -1.179400 8.085537 21.539886 13.857146
341 0 2 0.589700 7.135091 21.579136 13.963664
342 0 2 0.589700 8.249260 20.675539 13.479964
343 0 1 -1.179400 -5.907969 14.830899 13.494743
344 0 2 0.589700 -5.619686 15.716216 13.272773
345 0 2 0.589700 -5.104273 14.370137 13.735549
346 0 1 -1.179400 0.813500 14.619234 16.401144
347 0 2 0.589700 0.480136 14.799129 17.280197
348 0 2 0.589700 0.298989 15.187880 15.828322
349 0 1 -1.179400 4.354724 1.251332 -0.017462
350 0 2 0.589700 5.229190 1.192404 0.367336
351 0 2 0.589700 4.172141 2.190138 -0.055732
352 0 1 -1.179400 -6.012756 17.612663 12.105683
353 0 2 0.589700 -6.058369 18.450935 12.565455
354 0 2 0.589700 -5.323232 17.734135 11.452970
355 0 1 -1.179400 -8.579221 5.364385 16.276714
356 0 2 0.589700 -8.043438 4.582489 16.409962
357 0 2 0.589700 -8.279694 5.977727 16.947760
358 0 1 -1.179400 6.802315 6.997991 17.102896
359 0 2 0.589700 7.092923 6.973616 16.191200
360 0 2 0.589700 6.079415 7.625360 17.107658
361 0 1 -1.179400 1.356559 21.981770 5.073191
362 0 2 0.589700 1.124570 22.021620 6.000998
363 0 2 0.589700 0.598844 22.351814 4.620242
364 0 1 -1.179400 -2.916188 16.398468 13.747972
365 0 2 0.589700 -2.071557 16.323471 14.192051
366 0 2 0.589700 -3.504367 16.760712 14.410577
367 0 1 -1.179400 8.136199 7.897962 3.528308
368 0 2 0.589700 8.597501 8.711437 3.732352
369 0 2 0.589700 7.536752 8.133131 2.820080
370 0 1 -1.179400 -1.051256 9.953790 0.730214
371 0 2 0.589700 -1.328544 10.609170 1.370364
372 0 2 0.589700 -0.357528 10.384554 0.230813
373 0 1 -1.179400 -2.566103 16.579683 18.798723
374 0 2 0.589700 -2.760818 16.106079 17.990021
375 0 2 0.589700 -3.402921 16.617918 19.261869
376 0 1 -1.179400 -0.872207 16.930355 7.377100
377 0 2 0.589700 -0.033244 16.839117 6.925381
378 0 2 0.589700 -0.800228 17.758230 7.852091
379 0 1 -1.179400 8.705675 15.881674 12.312452
380 0 2 0.589700 9.186996 15.384732 11.650946
381 0 2 0.589700 9.274973 15.871109 13.081882
382 0 1 -1.179400 -5.545435 14.000607 10.343244
383 0 2 0.589700 -5.420469 14.572381 9.585838
384 0 2 0.589700 -4.852962 14.255267 10.953047
385 0 1 -1.179400 -4.252871 20.413900 9.229081
386 0 2 0.589700 -3.374407 20.653902 9.523918
387 0 2 0.589700 -4.406108 20.962563 8.459864
388 0 1 -1.179400 7.033542 4.304246 15.537473
389 0 2 0.589700 7.281321 3.851704 14.731232
390 0 2 0.589700 7.851376 4.680865 15.862323
391 0 1 -1.179400 -1.659060 22.407244 14.901633
392 0 2 0.589700 -1.056020 23.047743 14.524407
393 0 2 0.589700 -2.364615 22.933964 15.277087
394 0 1 -1.179400 0.481692 10.514022 8.604675
395 0 2 0.589700 0.958985 10.072266 9.307000
396 0 2 0.589700 1.133737 10.643628 7.916001
397 0 1 -1.179400 -8.436910 0.853189 17.434662
398 0 2 0.589700 -8.382074 0.683245 18.375055
399 0 2 0.589700 -9.276804 1.297684 17.319695
400 0 1 -1.179400 4.179740 21.750462 7.230718
401 0 2 0.589700 3.289019 22.017601 7.457613
402 0 2 0.589700 4.737144 22.435366 7.600051
403 0 1 -1.179400 4.030845 18.168755 18.881777
404 0 2 0.589700 3.150566 18.151957 18.506195
405 0 2 0.589700 4.318489 17.256096 18.860052
406 0 1 -1.179400 6.347374 8.585295 9.422060
407 0 2 0.589700 5.828563 8.444809 10.214101
408 0 2 0.589700 6.961596 7.851402 9.404181
409 0 1 -1.179400 4.056067 15.207968 12.301448
410 0 2 0.589700 4.832963 15.553451 11.861794
411 0 2 0.589700 3.451533 14.997027 11.589920
412 0 1 -1.179400 -1.762876 20.145374 5.781590
413 0 2 0.589700 -1.684544 21.004850 5.367661
414 0 2 0.589700 -1.485863 19.527212 5.105323
415 0 1 -1.179400 9.648573 17.604908 9.955022
416 0 2 0.589700 10.017103 16.976046 10.575447
417 0 2 0.589700 10.235800 18.359400 10.000771
418 0 1 -1.179400 6.375123 17.249063 6.215929
419 0 2 0.589700 6.347689 17.646843 5.345733
420 0 2 0.589700 6.324772 17.989750 6.820108
421 0 1 -1.179400 11.068685 2.267740 10.581362
422 0 2 0.589700 -7.118474 2.139971 11.529559
423 0 2 0.589700 10.161068 2.159956 10.297029
424 0 1 -1.179400 3.103737 19.260551 2.263010
425 0 2 0.589700 3.776731 19.467999 1.614720
426 0 2 0.589700 2.399231 19.883717 2.085426
427 0 1 -1.179400 8.096438 22.413128 4.751901
428 0 2 0.589700 7.312597 22.949945 4.868679
429 0 2 0.589700 8.074035 21.793863 5.481431
430 0 1 -1.179400 -1.340248 12.769690 18.447062
431 0 2 0.589700 -1.856345 13.489051 18.083261
432 0 2 0.589700 -1.937838 12.326069 19.048977
433 0 1 -1.179400 2.930929 21.265448 9.976490
434 0 2 0.589700 3.884241 21.350584 9.989891
435 0 2 0.589700 2.621001 22.094826 9.612826
436 0 1 -1.179400 -1.997949 6.391057 14.092723
437 0 2 0.589700 -2.524537 6.944849 13.516334
438 0 2 0.589700 -1.661624 6.989900 14.759414
439 0 1 -1.179400 -3.632929 10.283077 19.219473
440 0 2 0.589700 -3.002690 9.599782 18.991219
441 0 2 0.589700 2.969920 10.181643 0.758231
442 0 1 -1.179400 -1.871799 21.631350 9.839912
443 0 2 0.589700 -2.058031 22.316875 9.198380
444 0 2 0.589700 -1.313869 22.056986 10.490886
445 0 1 -1.179400 7.674590 12.933456 10.249730
446 0 2 0.589700 7.871563 12.098471 9.825256
447 0 2 0.589700 6.971447 12.729282 10.866279
448 0 1 -1.179400 7.740380 20.650318 6.987914
449 0 2 0.589700 6.880485 20.331036 7.261522
450 0 2 0.589700 8.287432 20.565664 7.768810
451 0 1 -1.179400 -6.193995 19.716949 13.811190
452 0 2 0.589700 -6.639248 20.343050 13.240273
453 0 2 0.589700 -5.598892 20.252039 14.336299
454 0 1 -1.179400 4.538063 5.742811 12.230536
455 0 2 0.589700 5.078280 6.242030 12.843039
456 0 2 0.589700 3.659222 5.769444 12.608906
457 0 1 -1.179400 -2.800871 1.394110 2.877836
458 0 2 0.589700 -2.481370 0.885304 2.132687
459 0 2 0.589700 -2.647049 0.831134 3.636521
460 0 1 -1.179400 6.809133 12.212048 6.502686
461 0 2 0.589700 6.142542 12.665825 5.986972
462 0 2 0.589700 7.353686 12.912936 6.861022
463 0 1 -1.179400 -2.301539 18.290972 11.724592
464 0 2 0.589700 -2.407014 19.197218 12.014022
465 0 2 0.589700 -2.607192 17.765762 12.464149
466 0 1 -1.179400 -0.756645 7.156869 1.489057
467 0 2 0.589700 -0.606411 8.085557 1.312614
468 0 2 0.589700 0.054408 6.856218 1.898978
469 0 1 -1.179400 1.560759 15.942783 6.230354
470 0 2 0.589700 2.391789 16.071035 6.687709
471 0 2 0.589700 1.562251 15.017651 5.984822
472 0 1 -1.179400 1.443276 12.600599 12.617298
473 0 2 0.589700 0.503783 12.540624 12.790471
474 0 2 0.589700 1.853580 12.473347 13.472686
475 0 1 -1.179400 -6.137636 16.211792 17.005856
476 0 2 0.589700 -5.938770 15.421363 17.507704
477 0 2 0.589700 -6.551390 16.799576 17.637936
478 0 1 -1.179400 4.199432 20.419716 16.225145
479 0 2 0.589700 4.062415 20.685961 17.134308
480 0 2 0.589700 4.275908 19.466375 16.263218
481 0 1 -1.179400 -1.436670 22.100965 1.232090
482 0 2 0.589700 -1.916302 21.292425 1.052099
483 0 2 0.589700 -1.790723 22.734070 0.607569
484 0 1 -1.179400 10.788395 22.090197 8.120320
485 0 2 0.589700 11.017700 22.722942 8.800948
486 0 2 0.589700 10.644679 21.270548 8.593286
487 0 1 -1.179400 -1.229475 13.617379 6.461506
488 0 2 0.589700 -0.317436 13.375849 6.622985
489 0 2 0.589700 -1.665127 13.486486 7.303709
490 0 1 -1.179400 0.337855 20.259918 19.049078
491 0 2 0.589700 -0.566811 19.974627 19.177198
492 0 2 0.589700 7.451750 20.514019 0.544598
493 0 1 -1.179400 -4.011351 7.862195 8.921697
494 0 2 0.589700 -3.303437 8.440611 8.637978
495 0 2 0.589700 -4.745894 8.450207 9.097457
496 0 1 -1.179400 6.840915 19.279026 4.042647
497 0 2 0.589700 6.512309 18.741386 3.322109
498 0 2 0.589700 6.115255 19.866291 4.254167
499 0 1 -1.179400 3.660476 15.380253 17.046732
500 0 2 0.589700 4.190382 14.672373 17.413197
501 0 2 0.589700 2.820458 14.969766 16.841572
502 0 1 -1.179400 10.797183 21.734314 4.869687
503 0 2 0.589700 9.938257 22.153791 4.819677
504 0 2 0.589700 10.666229 20.988401 5.455050
505 0 1 -1.179400 3.269667 -0.640031 15.354055
506 0 2 0.589700 3.377013 -0.143954 14.542516
507 0 2 0.589700 3.714937 46.056274 15.363655
508 0 1 -1.179400 0.599588 -0.653052 15.139937
509 0 2 0.589700 1.552382 -0.634920 15.229870
510 0 2 0.589700 0.434993 -0.312355 14.260695
511 0 1 -1.179400 -5.284381 13.124180 7.025245
512 0 2 0.589700 -4.482751 12.981909 7.528614
513 0 2 0.589700 -5.276085 14.059024 6.819923
514 0 1 -1.179400 -3.323686 17.157013 6.053850
515 0 2 0.589700 -2.427308 17.195354 6.387418
516 0 2 0.589700 -3.232198 17.263924 5.107049
517 0 1 -1.179400 -3.805068 3.536560 15.856136
518 0 2 0.589700 -3.535271 2.622925 15.763179
519 0 2 0.589700 -3.026167 3.984372 16.186275
520 0 1 -1.179400 11.913120 17.449207 3.052188
521 0 2 0.589700 11.750712 16.776934 3.713904
522 0 2 0.589700 12.084825 16.958424 2.248527
523 0 1 -1.179400 -4.447021 10.818395 15.437720
524 0 2 0.589700 -4.711725 10.026301 15.905372
525 0 2 0.589700 -4.697288 10.655164 14.528351
526 0 1 -1.179400 6.940686 7.001254 6.114965
527 0 2 0.589700 6.632924 6.819461 7.002921
528 0 2 0.589700 7.893875 6.935833 6.173238
529 0 1 -1.179400 9.514647 5.640170 3.969149
530 0 2 0.589700 9.696896 5.907140 4.870115
531 0 2 0.589700 8.962663 6.339222 3.618680
532 0 1 -1.179400 12.652535 1.658607 3.527478
533 0 2 0.589700 13.498308 1.755439 3.089841
534 0 2 0.589700 12.188758 2.473842 3.336486
535 0 1 -1.179400 -4.585783 6.989578 18.711424
536 0 2 0.589700 -4.877515 6.144406 18.369738
537 0 2 0.589700 1.903141 7.054287 0.231444
538 0 1 -1.179400 11.835838 6.514368 7.953944
539 0 2 0.589700 11.593629 5.966475 8.700508
540 0 2 0.589700 -5.484477 6.903532 8.203777
541 0 1 -1.179400 6.412072 10.143294 15.939342
542 0 2 0.589700 5.753216 10.312853 16.612686
543 0 2 0.589700 5.906565 9.885453 15.168491
544 0 1 -1.179400 5.047288 10.023646 7.243374
545 0 2 0.589700 5.282502 9.386919 7.918245
546 0 2 0.589700 5.722423 10.699339 7.305243
547 0 1 -1.179400 -6.808448 1.918403 13.674178
548 0 2 0.589700 -7.736199 1.710489 13.785006
549 0 2 0.589700 -6.348033 1.157521 14.028101
550 0 1 -1.179400 8.686429 9.342693 0.236002
551 0 2 0.589700 8.017623 9.307014 0.919860
552 0 2 0.589700 9.482590 9.614024 0.692883
553 0 1 -1.179400 -1.977918 6.130315 6.847474
554 0 2 0.589700 -1.247562 6.429565 7.389001
555 0 2 0.589700 -2.462009 5.525960 7.410162
556 0 1 -1.179400 4.868102 18.425655 10.355917
557 0 2 0.589700 3.947421 18.193239 10.476572
558 0 2 0.589700 5.349737 17.639139 10.612052
559 0 1 -1.179400 4.565547 9.645058 13.828355
560 0 2 0.589700 4.287692 9.344266 12.963166
561 0 2 0.589700 3.749569 9.765325 14.314100
562 0 1 -1.179400 -1.299351 8.182981 16.083141
563 0 2 0.589700 -0.435408 8.237079 16.491684
564 0 2 0.589700 -1.619630 9.084962 16.078701
565 0 1 -1.179400 1.213018 8.483087 17.028053
566 0 2 0.589700 1.472504 8.617310 17.939579
567 0 2 0.589700 1.230110 7.533259 16.911051
568 0 1 -1.179400 -4.013148 17.633865 9.676062
569 0 2 0.589700 -4.132253 18.451679 9.193186
570 0 2 0.589700 -3.227002 17.778391 10.202670
571 0 1 -1.179400 -6.101637 -0.288294 18.560646
572 0 2 0.589700 -6.765710 -0.597989 17.944754
573 0 2 0.589700 -5.812551 -1.077427 19.018766
574 0 1 -1.179400 0.291637 -0.885578 12.376863
575 0 2 0.589700 0.696544 45.764637 12.384473
576 0 2 0.589700 0.706275 -0.094357 12.033030
577 0 1 -1.179400 -3.571574 7.856412 12.210470
578 0 2 0.589700 -4.168346 7.163078 11.928789
579 0 2 0.589700 -2.950567 7.946850 11.487696
580 0 1 -1.179400 -9.470894 15.440538 17.413105
581 0 2 0.589700 8.061598 14.976974 16.856705
582 0 2 0.589700 -8.905313 14.752265 17.763233
583 0 1 -1.179400 2.970442 0.909030 13.120682
584 0 2 0.589700 2.156657 1.402079 13.224933
585 0 2 0.589700 3.057368 0.786489 12.175346
586 0 1 -1.179400 -3.102783 1.927621 11.489109
587 0 2 0.589700 -3.641036 2.421030 12.108015
588 0 2 0.589700 -2.912562 1.104721 11.939472
589 0 1 -1.179400 -5.619541 -0.243394 14.893600
590 0 2 0.589700 -5.089859 -1.040629 14.888196
591 0 2 0.589700 -6.499560 -0.541470 15.123688
592 0 1 -1.179400 -8.588726 -0.610600 15.086325
593 0 2 0.589700 8.831270 45.862988 15.259664
594 0 2 0.589700 -8.503922 -0.199608 15.946622
595 0 1 -1.179400 -5.964746 9.624148 9.190992
596 0 2 0.589700 -5.511952 10.208897 9.798657
597 0 2 0.589700 -5.566423 9.807130 8.340058
598 0 1 -1.179400 7.430363 2.218118 17.765318
599 0 2 0.589700 7.037860 1.811450 18.537834
600 0 2 0.589700 7.246045 3.151959 17.865948
601 0 1 -1.179400 4.417067 8.280507 17.439344
602 0 2 0.589700 4.165930 9.179006 17.653337
603 0 2 0.589700 4.146521 7.767851 18.201050
604 0 1 -1.179400 1.799144 3.673438 3.012774
605 0 2 0.589700 2.682699 3.414177 3.274195
606 0 2 0.589700 1.593647 3.108291 2.268070
607 0 1 -1.179400 3.999412 7.941123 3.093837
608 0 2 0.589700 4.730686 8.396545 3.511024
609 0 2 0.589700 4.413415 7.332607 2.481864
610 0 1 -1.179400 3.484143 7.238863 7.098191
611 0 2 0.589700 3.108641 8.119141 7.081493
612 0 2 0.589700 2.887386 6.713285 6.565405
613 0 1 -1.179400 4.824029 4.089037 17.114378
614 0 2 0.589700 4.528523 3.178690 17.104160
615 0 2 0.589700 5.548045 4.113374 16.488726
616 0 1 -1.179400 13.417815 11.378866 0.574593
617 0 2 0.589700 12.539525 11.179674 0.898875
618 0 2 0.589700 13.688649 10.585617 0.112442
619 0 1 -1.179400 11.767620 11.052444 4.164366
620 0 2 0.589700 12.684188 11.122519 3.897486
621 0 2 0.589700 11.549287 10.129820 4.033003
622 0 1 -1.179400 3.202971 1.735092 16.968203
623 0 2 0.589700 3.295440 0.901515 16.506929
624 0 2 0.589700 2.939773 1.490543 17.855417
625 0 1 -1.179400 -0.182740 -0.263187 8.303158
626 0 2 0.589700 0.090801 0.148931 9.122643
627 0 2 0.589700 -1.137264 -0.303980 8.361967
628 0 1 -1.179400 6.458915 -0.943183 8.584029
629 0 2 0.589700 7.242000 -0.658227 8.113068
630 0 2 0.589700 6.198474 -0.180413 9.100300
631 0 1 -1.179400 1.935063 9.510278 6.131763
632 0 2 0.589700 1.502507 8.947097 5.489948
633 0 2 0.589700 2.437070 10.132442 5.605363
634 0 1 -1.179400 7.824016 2.980680 4.542045
635 0 2 0.589700 8.139153 2.077564 4.506974
636 0 2 0.589700 8.496121 3.450347 5.035906
637 0 1 -1.179400 -4.965238 10.170276 12.828925
638 0 2 0.589700 -5.870735 9.885206 12.951550
639 0 2 0.589700 -4.475153 9.359851 12.690351
640 0 1 -1.179400 -1.845790 11.421903 11.053495
641 0 2 0.589700 -1.343848 12.174107 10.739764
642 0 2 0.589700 -2.760250 11.670286 10.918221
643 0 1 -1.179400 -2.918149 -0.543020 8.886976
644 0 2 0.589700 -3.551269 0.062090 9.273255
645 0 2 0.589700 -3.748718 46.102406 8.444848
646 0 1 -1.179400 8.296371 10.481503 12.543910