LAMMPS data file via write_data, version 23 Jun 2022, timestep = 40000000

2268 atoms
2 atom types

0.6905417800817872 46.76015721986872 xlo xhi
0 20.047001 ylo yhi
0 20.857 zlo zhi

Masses

1 1.008
2 15.999

Atoms # full

310 0 1 -1.1794 4.373223170088256 1.5918058469953038 2.99345467427959 0 -3 2
311 0 2 0.5897 4.074054066126241 0.7846144966971758 2.4243214699719693 0 -3 2
312 0 2 0.5897 3.9395527101549197 2.348187879600347 2.671481428586917 0 -3 2
606 0 2 0.5897 1.6518451650864512 3.4226391948738546 3.3123260121133082 0 0 4
1993 0 1 -1.1794 2.4797457157855893 3.1259856495672635 1.582986451328201 1 0 2
1994 0 2 0.5897 1.9792644186481054 2.6845302355450067 0.8920267549839894 1 0 2
2105 0 2 0.5897 6.141787506782438 2.187010308366818 2.6343249692657422 0 -4 -1
1587 0 2 0.5897 4.016754743653461 0.34917913259628086 0.4071697267509007 0 0 1
604 0 1 -1.1794 1.1462218895222498 3.199029590016597 4.124328312592391 0 0 4
1995 0 2 0.5897 2.8417951784476925 3.9930547959587153 1.2896731956617955 1 0 2
2096 0 2 0.5897 0.7476394353781857 1.0192129149170874 3.825685788951518 0 2 3
1586 0 2 0.5897 4.985310281855288 1.5334693935286194 0.025142143970638003 0 0 1
987 0 2 0.5897 1.0913979841541597 0.35635623711913944 0.19764716012744526 1 -1 1
985 0 1 -1.1794 0.776556323665353 1.1395678197121866 0.6931055576520658 1 -1 1
2104 0 1 -1.1794 7.1018079122011235 2.072023634929458 2.558094007555221 0 -4 -1
2106 0 2 0.5897 7.241082015802559 1.1240751507201767 2.6741641482189085 0 -3 -1
1104 0 2 0.5897 7.356027765640911 0.6598879326695427 0.4303346004275 0 1 1
1319 0 2 0.5897 7.945326009372669 3.5094088259384497 2.8982292578560243 0 1 1
1490 0 2 0.5897 10.333279275851783 1.2116261633385301 2.44170633839683 1 -1 -1
275 0 2 0.5897 10.08824891430435 3.540892891210376 2.953165639832306 0 -2 2
274 0 1 -1.1794 10.695413094960685 2.9191381591454966 3.3847857024490824 0 -2 2
1489 0 1 -1.1794 10.429799146626063 0.2952686105388177 2.1003790729355063 1 -1 -1
1491 0 2 0.5897 10.566842557712599 0.39271430146187336 1.1425361707028674 1 -1 -1
2027 0 2 0.5897 11.209542653197914 3.7208424938364284 0.07233993556674445 0 -2 1
840 0 2 0.5897 5.5598887922964355 4.31049024635275 1.3219817648206118 0 0 0
839 0 2 0.5897 4.904298292399004 5.35491513432789 2.3701423717788765 0 0 0
1763 0 2 0.5897 2.6061954233563265 7.463770596128292 3.2799895407376334 1 -1 1
497 0 2 0.5897 5.046897787907237 7.988320991131328 3.3860124525320057 1 1 0
838 0 1 -1.1794 5.539713283408834 4.634692741106373 2.2596648912574553 0 0 0
496 0 1 -1.1794 4.333432219777533 7.388339667276577 3.569937392380704 1 1 0
1028 0 2 0.5897 6.228015460755607 4.251010243557603 4.008306204046092 0 -2 2
1762 0 1 -1.1794 1.6391908771529449 7.376954142193512 3.3585442978482645 1 -1 1
2237 0 2 0.5897 3.0149234294439102 6.269319163209619 0.5173765218539668 1 0 1
722 0 2 0.5897 5.2026826473823755 7.171242839938935 0.09042939246357841 1 1 0
2236 0 1 -1.1794 3.2661468935304825 5.321738464601859 0.45646911028344905 1 0 1
724 0 1 -1.1794 3.059206449089368 7.939580449001094 0.07428733559444343 1 0 1
721 0 1 -1.1794 6.056548075464448 7.508537474355525 0.35479442219395513 1 1 0
1318 0 1 -1.1794 8.388593501541056 4.375874864349602 2.783908515957818 0 1 1
1320 0 2 0.5897 8.011969978285373 4.697306153016695 1.95669728971425 0 2 1
269 0 2 0.5897 7.870767157915782 5.807810876894496 4.009920134704246 0 1 2
1892 0 2 0.5897 9.982332268558876 6.596007131031006 3.581810590276891 0 -2 -2
1865 0 2 0.5897 8.850513132636308 6.608960399714603 0.7990882758702514 0 2 2
1891 0 1 -1.1794 10.85298149084077 6.417949090979096 3.9604571236360533 0 -2 -2
873 0 2 0.5897 10.774396296008861 7.462901501464182 1.4238389913886316 0 1 -2
268 0 1 -1.1794 7.882412747486772 6.768611493419896 4.11117958798509 0 1 2
871 0 1 -1.1794 9.919096113934051 7.845871035830874 1.2267144985325673 0 1 -2
1511 0 2 0.5897 12.002548904081854 4.71742369353219 3.9681441170217586 1 1 -1
723 0 2 0.5897 6.715568244393632 6.790192929610378 0.291200609801568 1 1 1
1864 0 1 -1.1794 8.37287359102708 5.790657169955934 0.5993074119267925 0 2 2
1866 0 2 0.5897 9.026283774000929 5.1398337993026315 0.2772301704233189 0 2 2
1002 0 2 0.5897 12.072662626756582 6.670158125578102 2.9186897678331625 1 1 1
1314 0 2 0.5897 1.4978422865731411 10.240145313588934 2.1511607930215013 0 3 2
2047 0 1 -1.1794 2.4173588324317277 10.794498388813794 0.830819124187199 0 -1 0
2049 0 2 0.5897 3.1680544488872973 11.342667930932693 1.0870349576841998 0 -1 0
1037 0 2 0.5897 4.138730893380512 10.132994089902986 3.5709615345577266 0 3 1
1266 0 2 0.5897 0.8210406877833103 11.381636009212873 4.133822324298435 0 -1 2
1312 0 1 -1.1794 0.8218558321384404 9.989227091950102 2.844541574394327 0 3 2
1313 0 2 0.5897 1.0644704943360277 9.054652336240181 3.072172278777291 0 3 2
726 0 2 0.5897 2.615090714323706 8.699999916225309 0.4919481612867542 1 0 1
1337 0 2 0.5897 6.492409178061821 8.29130551528555 1.9456144409905767 0 1 -1
1336 0 1 -1.1794 6.7277291090586155 8.71893527798119 2.7530114084269206 0 1 -1
2060 0 2 0.5897 7.035196351068781 10.509953221140398 2.350704246472267 0 -1 -1
1338 0 2 0.5897 7.323513089084103 8.108598131919234 3.2451990332160774 0 1 -1
2059 0 1 -1.1794 7.17768039507996 11.468999148213387 2.557674820877672 0 -1 -1
872 0 2 0.5897 9.778886058980914 8.555495607624168 1.8033906511391047 0 1 -2
1594 0 1 -1.1794 10.391577917923575 9.87849623870971 2.9501492954738784 0 0 0
1596 0 2 0.5897 9.821083350796146 9.774823578657019 3.7285230798122275 0 0 0
1595 0 2 0.5897 11.296084843377262 9.837057182123322 3.3610809749621446 0 0 0
830 0 2 0.5897 11.209576797780167 10.495293107857952 1.0595334369097282 0 0 1
1064 0 2 0.5897 8.899385065089595 11.617254770164607 0.1914304917500391 0 0 2
2061 0 2 0.5897 7.810937261518245 11.79887728231866 1.935400394808726 0 -1 -1
829 0 1 -1.1794 12.140043586552746 10.406122383221629 0.7380681090245433 0 0 1
588 0 2 0.5897 5.371562297154647 12.181032372494325 2.3677165917134997 0 0 -1
586 0 1 -1.1794 4.472645936522477 12.484586442113539 2.16577343161366 0 0 -1
587 0 2 0.5897 4.124678814926417 13.210731376068273 2.74561899110037 0 0 -1
1070 0 2 0.5897 2.487719967884265 14.848024346229051 2.4905965293083905 0 1 1
1069 0 1 -1.1794 2.8612243012059873 14.549895213359978 3.3046699779040427 0 1 1
1071 0 2 0.5897 2.1102127416570355 14.10115545613678 3.7009562529568303 0 1 1
1149 0 2 0.5897 1.0083900400266759 15.702112468431434 0.5577523642162762 0 0 1
544 0 1 -1.1794 5.818641525783601 15.153730103750389 3.30879038387746 0 -2 -1
1147 0 1 -1.1794 1.7700616246123706 16.022302154276545 1.031510661707987 0 0 1
546 0 2 0.5897 6.142524515828145 14.814080929780093 2.4774972820257477 0 -2 -1
1107 0 2 0.5897 4.46097882423196 13.37105074782885 0.24002809342128525 0 -1 0
6 0 2 0.5897 10.562275072877629 12.923631332754647 2.8911986959818208 0 -1 2
4 0 1 -1.1794 11.334724467877601 12.998836804759144 3.3988754881859675 0 -1 2
1008 0 2 0.5897 7.9339648521408686 13.912780814923881 0.62300881807148 1 2 1
1006 0 1 -1.1794 7.240884753963442 14.570535498384977 0.6716806647185136 1 2 1
1007 0 2 0.5897 7.6225103620965715 15.434139631156347 0.3485224926743378 1 2 1
25 0 1 -1.1794 11.454653486320542 15.623855681308683 1.2623941690287002 0 -1 3
26 0 2 0.5897 11.064684649010893 14.948605145632952 0.6218991267068366 0 -1 3
1063 0 1 -1.1794 9.188168976545134 12.393096019976188 0.6235579916713013 0 0 2
545 0 2 0.5897 6.60752077497121 15.579337633765913 3.637277760362234 0 -1 -1
1065 0 2 0.5897 9.788442405968386 12.762771686253723 0.002679738785246392 0 0 2
5 0 2 0.5897 11.18443455816703 12.42249834047953 4.124228634606811 0 -1 2
27 0 2 0.5897 12.021660474426897 15.0255529906233 1.796737036569488 0 -1 3
2097 0 2 0.5897 0.7746860805872395 19.549844924826026 3.259118342346226 0 1 3
1148 0 2 0.5897 2.4824496798889553 16.148521087914524 0.3825617995205657 0 0 1
1905 0 2 0.5897 4.469777543494642 18.750969420077155 1.9199965048085101 0 -1 1
1903 0 1 -1.1794 3.6768998126609693 19.282280645847237 1.6583756465519692 0 -1 1
1904 0 2 0.5897 3.0107514776041304 18.89453998587115 2.2374117781345637 0 -1 1
1998 0 2 0.5897 5.2222366107015175 18.210360888634554 4.161922982778549 1 -1 1
1997 0 2 0.5897 5.171750037053693 16.940053057128527 3.305557588305217 1 -1 1
1996 0 1 -1.1794 5.324992870718147 17.884384397722222 3.2710704813799536 1 -1 1
846 0 2 0.5897 2.11112756570365 17.520106824939678 3.621644597529513 0 -2 -3
845 0 2 0.5897 1.6859486533995587 17.207210635290103 2.240299390625402 0 -2 -3
844 0 1 -1.1794 1.6648094712884882 17.93003267947361 2.9076781475971782 0 -2 -3
802 0 1 -1.1794 7.489579374135916 19.36617656083585 2.160017809627639 0 -2 0
803 0 2 0.5897 8.42337988510226 19.47830297441977 2.3879717057797296 0 -2 0
1809 0 2 0.5897 11.439297597889414 19.654959919720177 3.6836498100532777 0 -1 -1
1569 0 2 0.5897 10.470499955321463 16.751301887298542 1.9192148948541667 0 1 1
1593 0 2 0.5897 8.59661411186175 17.279383798354644 0.7581643803447916 0 -1 -1
804 0 2 0.5897 6.976061077355726 18.99029936724762 2.882718127237837 0 -2 0
1568 0 2 0.5897 10.349640026499147 18.257706026280648 1.9296637312421476 0 1 1
1567 0 1 -1.1794 9.85721434979725 17.445448220188783 2.0389601412661835 0 1 1
53 0 2 0.5897 8.66273304429387 17.150487661205528 3.8254261043756004 0 -1 -1
2267 0 2 0.5897 4.78759674998246 0.5281219629331313 4.551212752027115 1 0 1
1786 0 1 -1.1794 1.7026266850940641 2.3541018300695056 7.268915911881902 0 1 0
1496 0 2 0.5897 3.484819523724229 3.5176721637343795 6.154286822407354 1 1 0
1787 0 2 0.5897 1.6922139456920084 1.5821903550610519 6.69652687458497 0 1 0
1027 0 1 -1.1794 5.981245360873239 3.8820770247980914 4.852430118739005 0 -2 2
338 0 2 0.5897 3.395668975698581 2.3463060559223723 8.288844037147589 0 0 2
834 0 2 0.5897 5.794454074728645 2.188055087911521 8.276223708796442 0 0 0
1788 0 2 0.5897 0.9337878315530238 2.888917413497686 7.083165330651151 0 1 0
605 0 2 0.5897 1.2642352183739485 3.951773319412777 4.698297792871949 0 0 4
832 0 1 -1.1794 6.800051492545815 2.3368572843960296 8.187286489891287 0 0 0
276 0 2 0.5897 10.615010596481712 3.002530612638155 4.343705928149442 0 -2 2
833 0 2 0.5897 7.184323538948988 1.7301431813908827 7.512412598041667 0 0 0
1640 0 2 0.5897 6.641021932795812 2.0773122590925346 5.216803882010914 0 4 1
1639 0 1 -1.1794 6.8484985252087345 1.2780084350947987 5.760509589788342 0 4 1
257 0 2 0.5897 10.091300794902244 1.830573513985117 7.1513139066536064 0 1 2
258 0 2 0.5897 9.444307176032218 0.6296620590274034 7.888070172943841 0 1 2
256 0 1 -1.1794 10.20771280133158 1.194248088722729 7.890846516100542 0 1 2
1641 0 2 0.5897 7.56601829317239 0.7763901558419437 5.362679664430367 0 4 1
1861 0 1 -1.1794 10.206203957024735 3.199725723085985 6.183091969847868 0 -3 3
1862 0 2 0.5897 9.372330343629605 3.6868624926058313 6.39624426449463 0 -3 3
1863 0 2 0.5897 10.980504974858224 3.798018563059031 6.348210862416143 0 -3 3
1497 0 2 0.5897 4.545875779795786 4.316336203714604 5.541816769508361 1 1 0
1495 0 1 -1.1794 3.781213592343066 4.408156329159208 6.116198261273369 1 1 0
498 0 2 0.5897 4.241952686353265 7.4485191875406205 4.514881891213658 1 1 0
1316 0 2 0.5897 4.441720918347729 5.442316221494157 7.62948947705758 0 1 3
1622 0 2 0.5897 2.2581478719955506 5.39273180885637 5.783215848965579 0 2 0
1838 0 2 0.5897 4.06864641735606 7.485073254479845 7.247354697534845 0 1 2
1837 0 1 -1.1794 4.169677971888554 7.972369421044569 6.381600159977947 0 1 2
1621 0 1 -1.1794 1.39010495152279 5.736372773576844 5.639034507177381 0 2 0
1764 0 2 0.5897 1.3938644416446735 7.034279794474291 4.231534628512978 1 -1 1
1623 0 2 0.5897 1.3583396247630064 6.096099090526007 6.5448559469990375 0 2 0
1029 0 2 0.5897 6.749508859410776 4.149089831015706 5.501483839720358 1 -2 2
1635 0 2 0.5897 7.589591290993011 4.070896230184831 7.716998680141724 0 2 -2
1893 0 2 0.5897 10.89904389932019 7.073880228429249 4.7075521016000375 0 -2 -2
1634 0 2 0.5897 7.868578188624252 5.519001401136559 7.252934890990567 0 2 -2
1633 0 1 -1.1794 7.994797473713095 4.630819967389067 6.980353992058777 0 2 -2
270 0 2 0.5897 8.205052821930586 6.965628437426514 5.006009213417197 0 1 2
977 0 2 0.5897 9.667715691644894 7.103148555326314 6.976704954288612 1 -1 0
976 0 1 -1.1794 9.583737984754762 7.759488179733792 6.256329907383187 1 -1 0
1291 0 1 -1.1794 10.427076637173904 5.881216958996446 7.979027331821672 0 -1 0
1293 0 2 0.5897 11.333582876144328 6.05626375150312 8.277817130365593 0 -1 0
1109 0 2 0.5897 7.173479845769444 7.71924835857333 7.9087999054313505 0 2 2
1108 0 1 -1.1794 7.247066068785958 6.83138133575963 8.271939563176101 0 2 2
1292 0 2 0.5897 10.193465891332815 4.983471494402379 8.330607570818053 0 -1 0
1036 0 1 -1.1794 4.399792861762424 10.42863369371688 4.440896811718475 0 3 1
1038 0 2 0.5897 3.5628278499145707 10.417659258751117 4.962193753313628 0 3 1
1839 0 2 0.5897 3.5304366022038245 8.74250091775012 6.318243147274697 0 1 2
333 0 2 0.5897 5.672033561953262 8.76321051018482 6.741111361292928 0 0 -1
1114 0 1 -1.1794 2.3414552215972524 10.092525867869123 6.339524564105643 0 -1 1
1115 0 2 0.5897 2.5464280547633766 10.582681185978583 7.1265405440472644 0 -1 1
1116 0 2 0.5897 1.345882233721563 9.869064762398768 6.322558494759974 0 -1 1
331 0 1 -1.1794 6.429879577169302 9.175195099484228 7.260692063903372 0 0 -1
884 0 2 0.5897 7.6464991601147645 9.954771071615797 4.23437722209959 0 3 1
978 0 2 0.5897 9.525427126735087 8.634568023222522 6.676650008189251 1 -1 0
883 0 1 -1.1794 8.195626369691956 10.27727973650379 4.983631281376133 0 3 1
332 0 2 0.5897 6.939883760247209 9.702305636197256 6.64136954983566 0 0 -1
885 0 2 0.5897 8.231886807962283 11.246579318227239 4.897766938112126 0 3 1
1303 0 1 -1.1794 9.8214363622124 10.106238222069221 7.7067866640832605 0 -2 -1
1305 0 2 0.5897 9.122326372239538 10.807992994449297 7.722716245477487 0 -2 -1
1092 0 2 0.5897 11.668850470232698 9.739886643471545 7.731857159065702 0 -2 -1
531 0 2 0.5897 11.434557750627222 10.712654700338504 5.895686522987389 0 -2 -1
1234 0 1 -1.1794 7.598552107373192 11.93475894190476 7.948396829412995 1 0 1
1235 0 2 0.5897 6.684937808310982 11.698997599239776 7.844627637930247 1 0 1
529 0 1 -1.1794 11.420588595173642 11.644865130204566 5.701630460435043 0 -2 -2
1264 0 1 -1.1794 0.9069418019653612 12.357214614221407 4.354369737121666 0 -1 2
1352 0 2 0.5897 2.7735261320423223 12.597430970506075 7.5705849542462875 0 -3 -2
1992 0 2 0.5897 3.1622306854115423 15.787147504421672 4.483016332681812 1 1 0
141 0 2 0.5897 5.51846545566724 13.576604253187867 4.771317498473666 0 0 -1
140 0 2 0.5897 5.309138948681138 12.10009075762772 4.906691799534431 0 0 -1
139 0 1 -1.1794 5.477659693759866 12.897262246424187 5.44705877911386 0 0 -1
807 0 2 0.5897 3.161507215885404 14.434298321200231 6.909879977507299 0 2 -1
805 0 1 -1.1794 2.8844505723361253 13.645352593088827 6.3521956954925205 0 2 -1
806 0 2 0.5897 3.71222067475725 13.32542207888635 5.917681372762254 0 2 -1
593 0 2 0.5897 6.079139438640764 15.296416820565032 8.03004478307812 0 -2 -2
778 0 1 -1.1794 0.8023111315709301 15.858110186892345 6.3985425819698465 0 0 2
733 0 1 -1.1794 3.756303071375388 15.602826586646389 7.9054321254428475 1 1 0
780 0 2 0.5897 0.9147316951535064 14.929138043462585 6.326386537113989 0 0 2
530 0 2 0.5897 11.225489593682349 12.094683484074682 6.568034910911704 0 -2 -1
1151 0 2 0.5897 11.05182981745235 14.319274584879457 4.472421443570921 0 0 0
1236 0 2 0.5897 7.658962303366673 12.60097431242149 7.199094752553474 1 0 1
1150 0 1 -1.1794 10.7449240680321 14.86378106948887 5.187359559556026 0 0 0
319 0 1 -1.1794 8.239469477093488 13.033110851467203 5.5372933682314684 0 -1 1
1152 0 2 0.5897 11.009153730120016 14.520871670952966 6.006168231446172 0 0 0
321 0 2 0.5897 7.532497542329765 13.609135530998026 5.2348183850539565 0 -1 1
320 0 2 0.5897 8.963480707433433 13.61738918325392 5.392298014739121 0 -1 1
1324 0 1 -1.1794 10.77283496846015 13.629624295352599 7.527488402715105 0 -2 -2
1325 0 2 0.5897 10.031139974291268 14.178179842737899 7.907312855347796 0 -2 -2
1991 0 2 0.5897 2.6667590403773827 16.685895889131547 5.655184767788629 1 1 0
218 0 2 0.5897 2.677664886018979 19.643923680237283 5.649761849382559 1 0 0
217 0 1 -1.1794 1.9454333967035755 19.726693696539837 6.302964195792718 1 0 0
2266 0 1 -1.1794 4.486268762442451 19.931367493605997 5.174094146646288 1 -1 1
219 0 2 0.5897 2.0564047841537176 19.070839854338804 6.96523706496754 1 0 0
2268 0 2 0.5897 5.017508720632841 19.908028721622514 5.940949890534122 1 -1 1
1990 0 1 -1.1794 3.3983553130731563 16.563309596296417 5.0319985621897105 1 1 0
1259 0 2 0.5897 5.1444853726985285 16.522740366088637 6.103672931308994 1 -3 1
1481 0 2 0.5897 5.817173714935043 18.188440018513887 7.33746529033293 1 1 0
1480 0 1 -1.1794 5.745499642379484 19.15442525844715 7.583401110293786 1 1 0
1258 0 1 -1.1794 6.031706473378256 16.613542642673064 6.510181084478189 1 -3 1
735 0 2 0.5897 3.2483452098863124 16.404975034830137 7.987110400989833 1 1 0
54 0 2 0.5897 9.126041192152096 16.363488667635746 5.0880457605654055 0 -1 -1
1808 0 2 0.5897 12.16632084972243 18.989596168773875 4.907761481787755 0 -1 -1
1807 0 1 -1.1794 11.69842960640805 19.747306378770688 4.593030738143615 0 -1 -1
1482 0 2 0.5897 6.680226768706039 19.310258456011656 7.870273846706542 1 1 0
1143 0 2 0.5897 8.817688298671428 18.713568615101874 5.397255476938317 0 -1 1
1141 0 1 -1.1794 8.760142689480817 19.4572113364341 4.797554678255245 0 -1 1
1260 0 2 0.5897 6.672339178554956 16.442765224847246 5.84121227515913 1 -3 1
1142 0 2 0.5897 9.690369633360138 19.845939730626245 4.874528872188385 0 -1 1
52 0 1 -1.1794 8.356878997501235 16.534942808634625 4.499009513031081 0 -1 -1
1744 0 1 -1.1794 9.877255083082606 17.21976028649378 6.793171133817105 1 0 0
1746 0 2 0.5897 10.79190885004705 17.362150624800307 6.494325770026738 1 0 0
1385 0 2 0.5897 8.699425994047779 18.176109898314454 7.8553433731830395 0 1 0
1745 0 2 0.5897 9.977142545065394 16.55670906852664 7.52732939070117 1 0 0
1384 0 1 -1.1794 8.332749934370538 19.016918887575777 8.25986894524415 0 1 0
2247 0 2 0.5897 12.198587247538907 16.547489477684792 5.488801292077867 1 0 0
106 0 1 -1.1794 1.1384713646325983 1.3677497733793722 9.926796457331834 0 0 1
337 0 1 -1.1794 4.155616488373381 2.3926739986881453 8.929681690019752 0 0 2
339 0 2 0.5897 4.131334078040187 1.5124185183426506 9.318910366234059 0 0 2
795 0 2 0.5897 1.46350870463496 3.73623441146536 10.215656391166275 0 0 -1
107 0 2 0.5897 1.3914864794988238 1.4828194349397807 9.004704406147175 0 0 1
20 0 2 0.5897 2.0296484611645527 1.7991137588840358 11.67602910498119 0 0 -1
88 0 1 -1.1794 4.88869236826141 2.737989071767362 12.307028174529242 0 0 1
90 0 2 0.5897 3.967192139157801 2.403451509140409 12.472860739368285 0 0 1
794 0 2 0.5897 2.9803562009119307 3.8610386082025947 10.255939966643288 0 0 -1
252 0 2 0.5897 6.050716011210058 1.8076832969545906 11.250135737115835 1 3 1
1479 0 2 0.5897 5.124146694930913 3.978027863829914 11.25475302652698 1 1 0
1775 0 2 0.5897 11.696169238888274 0.7983863450093468 9.005559812785775 0 -3 -1
251 0 2 0.5897 6.928657294153368 1.7852586465307978 9.939177136874935 1 3 1
250 0 1 -1.1794 6.822298660855497 1.3797240491473386 10.883102563713198 1 3 1
1779 0 2 0.5897 9.639011763075475 2.4618510652596135 8.931986188468482 0 1 1
1607 0 2 0.5897 8.21597293063704 2.3638701051383317 11.80133935742616 0 -1 -1
1803 0 2 0.5897 11.426016855265805 3.780038721304041 11.85961299488821 0 0 -2
1777 0 1 -1.1794 9.439575053082258 3.172406359796652 9.542852314039528 0 1 1
1778 0 2 0.5897 10.243756303028793 3.3917378416974255 10.067350446624907 0 1 1
1802 0 2 0.5897 9.975801953899081 3.959587749358018 12.334277042583071 0 0 -2
1315 0 1 -1.1794 4.608267691640741 6.070837842219394 8.377436613878334 0 2 3
1110 0 2 0.5897 6.325573516923264 6.622220265827279 8.351261463839954 0 2 2
793 0 1 -1.1794 2.159187437014007 4.387289245802511 10.285565822417635 0 0 -1
481 0 1 -1.1794 1.243705935345215 6.478540886077339 8.431204867923775 1 1 0
482 0 2 0.5897 1.4498770035360553 7.361283975026586 8.734346058944352 1 1 0
1317 0 2 0.5897 4.581358904782704 5.591419599788148 9.198878921403805 0 2 3
1477 0 1 -1.1794 5.350279805530297 4.7602903651734785 10.733143115973103 1 1 0
1478 0 2 0.5897 6.328951445954647 4.761004494203786 10.715363306999485 1 1 0
2002 0 1 -1.1794 5.102654253067393 7.364919302878958 11.867422780278714 1 1 0
483 0 2 0.5897 1.782773000759563 5.8344951987525935 8.905213580095962 1 1 0
2003 0 2 0.5897 5.861595060299863 7.808233635445757 11.436059429448255 1 1 0
2004 0 2 0.5897 5.066027073718845 6.5661899281577725 11.318480953585675 1 1 0
2079 0 2 0.5897 2.2033702715120467 5.1068210869758675 11.714676394964567 0 1 0
2078 0 2 0.5897 3.4125669208036844 5.124963824252294 12.491446492192292 0 1 0
231 0 2 0.5897 1.7297892417458725 7.41162794787955 12.374161706380725 1 -1 0
874 0 1 -1.1794 12.131524166135167 6.73126095338512 11.73837833249124 0 -1 0
2085 0 2 0.5897 8.079232353745681 6.2094502609015665 9.911721060624298 0 1 1
2084 0 2 0.5897 8.667838517710912 4.812097446391908 10.22849374005399 0 1 1
2083 0 1 -1.1794 7.98704788684782 5.4511434764795395 10.490618035273513 0 1 1
876 0 2 0.5897 11.507897659998141 5.917866214798177 11.705241769673117 0 -1 0
51 0 2 0.5897 8.05589180119885 6.212202315891591 12.232856443355848 0 1 0
1801 0 1 -1.1794 10.711518776027805 4.421505586876197 11.930939453736894 0 0 -2
1859 0 2 0.5897 9.824012402312897 7.436668167958051 9.283612661354075 0 -1 -1
230 0 2 0.5897 1.1399399012178517 8.804064207303744 12.136129660271555 1 -1 0
1238 0 2 0.5897 2.9785805209291083 8.720032855607604 10.082739250400003 1 1 0
1237 0 1 -1.1794 2.4803058233794326 8.947074075842634 9.310100091911675 1 1 0
1353 0 2 0.5897 1.9794200392227095 11.699006194069263 8.423740538852789 0 -3 -2
23 0 2 0.5897 4.684695006100776 10.916257270151771 8.990114576194635 0 -1 2
22 0 1 -1.1794 5.129881785512387 10.838605257503193 9.874497504713394 0 -1 2
24 0 2 0.5897 4.365203260911989 11.12037533477666 10.491614937742147 0 -1 2
1239 0 2 0.5897 1.8186088399433162 9.62554409850867 9.508752317205841 1 1 0
535 0 1 -1.1794 3.58498975787471 11.343262076015789 12.057882316845461 0 1 -2
1113 0 2 0.5897 6.3527329929073115 9.476768398211854 10.112259971585 0 -3 2
537 0 2 0.5897 2.64522002556314 11.473369403474871 12.127131329473384 0 1 -2
229 0 1 -1.1794 1.9702611507599073 8.334856817299954 12.261491197251392 1 -1 0
1304 0 2 0.5897 9.710703638439016 9.667497368110341 8.577486067796722 0 -2 -1
1858 0 1 -1.1794 9.604700882664641 8.152748671403511 9.85983621002585 0 -1 -1
1860 0 2 0.5897 8.64515107145441 8.160008950788818 10.010922266643293 0 -1 -1
1111 0 1 -1.1794 6.958484471240137 8.907955749218386 10.627440801953059 0 -3 2
1112 0 2 0.5897 7.191941809789846 9.449508823508287 11.439875406140567 0 -3 2
502 0 1 -1.1794 10.499908996378526 10.574388395371766 11.243945674583427 1 1 1
504 0 2 0.5897 10.286101271921199 9.6416028614054 11.41530638758952 1 1 1
503 0 2 0.5897 10.438136917751432 11.006671675528684 12.11503797705234 1 1 1
1298 0 2 0.5897 8.737125246213983 11.59015826823235 10.652093685657606 0 0 1
1351 0 1 -1.1794 2.8323280032166154 12.11301554311355 8.395707105039214 0 -3 -2
34 0 1 -1.1794 0.9009423817639531 13.8884083457904 9.41703233737917 0 -1 1
343 0 1 -1.1794 4.464780411034612 13.93974637218659 10.290891676782925 0 -2 -3
344 0 2 0.5897 4.66409283626629 13.608354930712059 11.215688751595529 0 -2 -3
345 0 2 0.5897 4.087950642070889 13.17110118725024 9.812478493255611 0 -2 -3
2264 0 2 0.5897 0.9686692960154244 15.311304367185015 12.123359823817683 1 0 1
80 0 2 0.5897 1.4531068410154213 15.468996052492477 9.915325263904569 0 4 -1
594 0 2 0.5897 5.893782423729357 14.174659838723056 9.076428169732425 0 -1 -2
734 0 2 0.5897 4.016735696277435 15.509311393815201 8.834141893920354 1 1 0
580 0 1 -1.1794 0.9816982031124531 12.045385255429935 12.13780297494947 0 1 0
581 0 2 0.5897 1.1209556852851996 13.031240158809812 12.404166141370316 0 1 0
36 0 2 0.5897 1.3456870720168128 13.25731691737186 10.00400548689908 0 -1 1
1326 0 2 0.5897 11.141885459617535 13.311469477699125 8.393237675008912 0 -2 -2
592 0 1 -1.1794 6.514323143237214 14.834138697214113 8.753293819326752 0 -1 -2
842 0 2 0.5897 11.134833230086324 12.057404595530135 10.098820974646365 0 0 0
1299 0 2 0.5897 8.147424215670846 12.741547580471117 9.748972980592916 0 0 1
474 0 2 0.5897 6.653650870014928 12.492395192478822 11.949449873731234 1 -1 -1
1297 0 1 -1.1794 8.429653874060897 12.512476385068764 10.660009636965539 0 0 1
638 0 2 0.5897 8.128343907219389 15.131913907046458 8.616839796925293 0 0 1
637 0 1 -1.1794 9.095756250592784 15.347630778851142 8.47599091556282 0 0 1
2018 0 2 0.5897 9.911385830716524 14.325632868902135 11.407582260459424 1 -2 -2
2017 0 1 -1.1794 9.806125517780202 15.276018180854908 11.274716842936122 0 -2 -2
639 0 2 0.5897 9.445958689528915 15.442420765378483 9.358441459149555 0 0 1
2019 0 2 0.5897 10.727813376095652 15.594165542225433 11.36033143546755 0 -2 -2
841 0 1 -1.1794 11.768009931585866 12.610014745042958 9.612575884796337 0 0 0
1017 0 2 0.5897 7.780965357094804 15.932522789964839 11.239437330187819 0 -3 2
79 0 1 -1.1794 1.8536764331051718 16.149770210403666 10.52443409689689 0 4 -1
1097 0 2 0.5897 0.9372366451010488 18.61356786470028 8.897458960463709 0 -1 1
1096 0 1 -1.1794 1.7539989635316133 18.22822311916412 8.592749769456292 0 -1 1
1098 0 2 0.5897 2.4743706185832464 18.74807847652387 9.000241758750592 0 -1 1
1229 0 2 0.5897 1.98957792468328 19.791712418085414 11.267824291451426 1 -1 0
1125 0 2 0.5897 4.400279439181583 19.43700233485002 10.46401855929103 0 1 1
1123 0 1 -1.1794 3.9501624424446606 19.546873062821888 9.639503119167125 0 1 1
1228 0 1 -1.1794 1.8676524109223973 19.029494060844893 11.839413767381988 1 -1 0
1230 0 2 0.5897 2.7399667995627133 18.627065587388504 11.834180432970706 1 -1 0
1124 0 2 0.5897 4.6368282769050335 19.31035810403254 8.963229226693127 0 1 1
221 0 2 0.5897 3.2442198904477104 16.369861679039587 11.636004994712366 1 -1 -1
1345 0 1 -1.1794 4.901622567494831 19.22133562419127 12.008365600082596 0 -3 2
1347 0 2 0.5897 4.726084373842011 18.31838411240943 12.339118870801416 0 -3 2
222 0 2 0.5897 4.471094378161636 16.092081035877037 12.486749580360922 1 -1 -1
220 0 1 -1.1794 3.8575543526978273 16.75735607385422 12.283011536607217 1 -1 -1
81 0 2 0.5897 1.7895047112664473 16.947489557211817 9.89379400193117 0 4 -1
1016 0 2 0.5897 6.5145208674223545 16.040667313655632 10.341308112903029 0 -3 2
1530 0 2 0.5897 7.307324155989347 19.901858858218986 10.959513685537194 0 -1 -1
224 0 2 0.5897 11.508891129236627 19.439099002792155 10.693061409526035 1 0 0
1015 0 1 -1.1794 6.91138576805367 16.324321601011576 11.20809958550193 0 -3 2
223 0 1 -1.1794 10.948828590417174 19.2678488346452 11.488514832884995 1 0 0
225 0 2 0.5897 10.021029672544865 19.057477068015373 11.194508894803672 1 0 0
1528 0 1 -1.1794 7.804147777322204 19.059653194543657 10.709715305946675 0 -1 -1
1386 0 2 0.5897 8.220303192686153 18.87205946552496 9.21305394058168 0 1 0
1529 0 2 0.5897 7.21809951838516 18.268391391000023 10.861438356747069 0 -1 -1
19 0 1 -1.1794 2.048432353779112 2.0035462406938547 12.605253176769184 0 0 -1
89 0 2 0.5897 5.273347553047385 2.9009058433084856 13.189536979446025 0 0 1
614 0 2 0.5897 2.7531446025093147 3.2634614585781665 14.937366719261085 0 -1 0
21 0 2 0.5897 2.3870302180134346 1.1767563772190104 12.966536290221969 1 0 -1
104 0 2 0.5897 3.564995822427049 0.6161699760801007 15.024125160662281 0 1 -2
613 0 1 -1.1794 3.5304026222259046 2.7868294782059415 15.222879517958942 0 -1 0
615 0 2 0.5897 4.295959562375987 3.2699702571537177 14.931403472615589 0 -1 0
103 0 1 -1.1794 3.6342588623580117 0.10376558660889275 14.268781027903495 0 1 -2
1499 0 2 0.5897 6.607791246978526 3.3342259263946605 15.403155277761506 1 1 0
989 0 2 0.5897 11.961180805404561 2.112713043333851 14.134563192315737 1 -1 1
2067 0 2 0.5897 10.576985770003244 0.44340970972610116 12.749277540892193 0 1 -2
1606 0 1 -1.1794 8.508406009518868 2.8679803785400613 12.594688860564167 0 -1 -1
1498 0 1 -1.1794 6.544415306420707 3.3760005690916866 14.425236481554293 1 1 0
1608 0 2 0.5897 9.06955413404885 2.2398507821953 13.044469657100887 0 -1 -1
1500 0 2 0.5897 7.364252505106194 3.1001414600125647 14.000762861417119 1 1 0
1835 0 2 0.5897 9.630403133317843 3.5473845520330713 15.348514722787312 0 1 0
1836 0 2 0.5897 9.691471838078588 2.0282084447096778 15.041842080077295 0 1 0
1834 0 1 -1.1794 9.452866437370089 2.666921082182834 15.70535600203922 0 1 0
2065 0 1 -1.1794 10.421600787280171 0.8286701682116315 13.660160897727545 0 1 -2
2066 0 2 0.5897 10.754276101127724 0.11875351650678355 14.206076670221606 0 1 -2
2077 0 1 -1.1794 2.58065390152224 5.564397061088168 12.515662274582464 0 1 0
824 0 2 0.5897 5.143179665926295 6.55863365182907 13.41936593863891 0 0 -1
322 0 1 -1.1794 1.438819435473401 5.029235462893256 14.849747988327147 0 -1 3
823 0 1 -1.1794 5.222787136301327 6.04250844456194 14.234906072298033 0 0 0
324 0 2 0.5897 1.6430506332417125 5.151334019811233 13.878581292886794 0 -1 3
1306 0 1 -1.1794 3.3602065586131755 6.287556955513847 16.27168991870717 0 2 -1
1307 0 2 0.5897 4.067535318153709 6.164559713679902 15.626411651141447 0 2 -1
323 0 2 0.5897 2.0501992985428563 5.621185081960373 15.269069917847409 0 -1 3
825 0 2 0.5897 5.849769293601278 5.278081536568005 14.126964532207657 0 0 -1
1308 0 2 0.5897 3.3707572707526983 7.261376645112402 16.416158632926855 0 2 -1
49 0 1 -1.1794 8.310183951062157 6.593705141843916 13.05688007561689 0 1 0
1358 0 2 0.5897 9.184925312898951 5.659393892726686 14.149537045335942 0 2 -2
1357 0 1 -1.1794 9.662176283221147 5.240734559799346 14.839430925055348 0 2 -2
1359 0 2 0.5897 10.559196089373382 5.562873526632681 14.867778015424136 0 2 -2
860 0 2 0.5897 10.548392204681704 7.119598463301744 15.899969299009806 0 -2 -2
475 0 1 -1.1794 12.06179047692969 6.059136626143281 15.82645126649516 1 0 -2
768 0 2 0.5897 6.842133020402469 7.455520559143561 15.318391011549831 0 1 0
766 0 1 -1.1794 7.306554074995979 8.008976061880425 15.920427215303295 0 1 0