LAMMPS data file via write_data, version 23 Jun 2022, timestep = 7689000

2268 atoms
2 atom types

0.8828364310476893 46.56786256893548 xlo xhi
0 20.047001 ylo yhi
0 20.857 zlo zhi

Masses

1 1.008
2 15.999

Atoms # full

1056 0 2 0.5897 2.9705449923127505 0.883690299020624 1.565772795759907 0 0 0
1054 0 1 -1.1794 2.890627271234237 0.3336055226488896 2.3712862251353832 0 0 0
1259 0 2 0.5897 2.9829133306561038 3.1767631551389846 1.1847161076780632 1 0 0
1356 0 2 0.5897 1.2311097774312094 0.542963184329014 3.1168828109779296 0 1 1
1258 0 1 -1.1794 2.8642032783632643 2.3679908352144228 0.649539397995013 1 0 0
332 0 2 0.5897 5.952370646889865 0.3679589791517796 2.594866961398952 0 2 0
1571 0 2 0.5897 3.854854682558509 1.094947026537072 3.806113597283517 0 0 0
792 0 2 0.5897 6.176941456086779 2.8156748450647906 1.490383744188182 0 -1 1
331 0 1 -1.1794 6.527738324274857 0.8916136237559654 2.0185411714646846 0 2 0
790 0 1 -1.1794 5.851639405273412 3.664222972691081 1.8385049704942018 0 -1 1
12 0 2 0.5897 1.0595932429076775 2.1893820703925 0.40244928752800346 0 0 1
1617 0 2 0.5897 8.267940786458059 1.2696879677354216 2.466797311325494 0 -1 0
1615 0 1 -1.1794 9.015713368407908 1.8914094588963843 2.4718825934243216 0 -1 0
1326 0 2 0.5897 9.955985522934656 2.1308437066687014 1.0713807595004416 0 1 -1
1616 0 2 0.5897 9.645143585790807 1.513925669553339 3.1229242007567835 0 -1 0
333 0 2 0.5897 6.723005633368623 0.30659295738745707 1.2422492542618864 0 2 0
1324 0 1 -1.1794 10.451034806353153 2.061427468944872 0.23747104078667652 0 1 -1
1325 0 2 0.5897 11.350487025435255 2.262029092053465 0.5123000052832717 0 1 -1
852 0 2 0.5897 11.819010923644544 1.3277608204863438 3.8286580842280546 0 1 0
1095 0 2 0.5897 6.698398336809497 3.5182359627758677 3.9659962686138983 0 0 0
850 0 1 -1.1794 11.206108234038515 0.6120654000777187 4.006409348395437 0 0 0
890 0 2 0.5897 4.393236027695693 4.070042934085498 2.502821656464382 0 1 1
791 0 2 0.5897 6.008069410633842 4.349370121231692 1.2291264282287717 0 -1 1
889 0 1 -1.1794 3.4707177875747237 4.377773719343568 2.619105591679076 0 1 1
891 0 2 0.5897 3.462053453520795 5.297720734317551 2.7175465137617287 0 1 1
2104 0 1 -1.1794 3.1643735480739568 7.236551951239079 2.380594133052794 0 -2 0
2105 0 2 0.5897 3.2648584393075804 7.488038717312035 3.332117020807469 0 -2 0
285 0 2 0.5897 1.306916546242992 7.262675724140564 3.155571432064437 0 0 1
388 0 1 -1.1794 6.048018960586239 7.5828127230390905 2.4466581294885144 0 0 0
989 0 2 0.5897 1.3832867039669847 5.781187421263715 0.23892574776365427 1 0 1
990 0 2 0.5897 2.8645597767362885 5.4249842917551785 0.14371783073371067 1 0 1
389 0 2 0.5897 5.532493143644557 7.069456790146044 3.091114161429384 0 0 0
297 0 2 0.5897 4.6097776270516615 6.724412681381459 0.22765508543435498 0 2 0
295 0 1 -1.1794 4.747087525684841 5.794333372320167 0.08525926601398807 0 2 0
1302 0 2 0.5897 11.888205100381118 4.150481784094787 2.8389804118754394 0 0 1
786 0 2 0.5897 8.228243570764949 4.231353380255982 1.6785295226109673 0 0 -1
785 0 2 0.5897 8.638513406899888 5.676389304553224 1.0980778029544507 0 0 -1
784 0 1 -1.1794 8.94520153910252 4.871791952847429 1.5277406819107602 0 0 -1
1301 0 2 0.5897 10.60191359800496 4.930527547017578 2.3156991067952326 0 0 1
1300 0 1 -1.1794 11.571267496432988 4.898538453410236 2.371707437649222 0 0 1
91 0 1 -1.1794 10.390084168287052 7.456055082925525 2.17780563547492 0 0 2
92 0 2 0.5897 11.224999531920401 7.385198774737892 1.7980331288655764 0 0 2
2084 0 2 0.5897 6.952150955296345 7.583606073737182 0.8920047352710894 0 0 1
59 0 2 0.5897 9.506685239475354 6.766977056570766 3.753469494322742 0 0 0
2083 0 1 -1.1794 7.701419741813345 7.687897875922178 0.26467122235352986 0 0 1
2106 0 2 0.5897 3.1035297765239704 8.112514098450665 1.976632969811736 0 -1 0
390 0 2 0.5897 6.332109961741505 8.359386064957999 2.9393335775616545 0 0 0
347 0 2 0.5897 2.4881611168916278 10.944781873808932 3.05218179988479 0 -1 1
348 0 2 0.5897 3.176639852693718 10.511275242191966 1.8372155054826147 0 -1 1
346 0 1 -1.1794 3.2811698111616767 11.094650154271605 2.5727296858605917 0 -1 2
530 0 2 0.5897 5.429113201094526 11.122474639531367 2.2184097596347665 0 -1 1
529 0 1 -1.1794 5.920814803122522 11.55279944538095 1.5371721387431363 0 -1 0
775 0 1 -1.1794 3.0672150153965663 9.303383504896289 0.5054971731809085 0 -1 2
777 0 2 0.5897 2.1891538312101892 9.10021946893759 0.1399058997439735 0 -1 2
531 0 2 0.5897 6.791971361921587 11.753165767026212 1.877326522042011 0 -1 1
93 0 2 0.5897 10.166050720136559 8.385246128150262 2.173068753141687 0 0 2
1510 0 1 -1.1794 10.254283129765081 10.1605094618952 2.5538752853963853 1 1 0
1512 0 2 0.5897 10.960101125058811 10.389827574644269 1.915744890008364 0 1 0
1643 0 2 0.5897 8.822983166968282 11.353700613232476 2.7549276456442997 0 0 1
2059 0 1 -1.1794 11.87258849542089 10.458372106220732 0.4255311373353471 0 0 0
1511 0 2 0.5897 10.669999411648682 10.181025600331107 3.429704445840684 1 1 0
813 0 2 0.5897 8.305786082504227 9.503921846250183 0.16561849325445976 0 -1 2
1821 0 2 0.5897 4.031995943406066 12.621739066550706 4.0130343498516945 0 0 0
2046 0 2 0.5897 3.112249414840519 12.893098105467882 1.9452200310762404 0 -1 0
2045 0 2 0.5897 2.567810272895361 14.126024785415245 1.2165587433060128 0 -1 0
2044 0 1 -1.1794 2.9713295843894603 13.850187767760637 2.071160350730459 0 -1 0
1113 0 2 0.5897 2.0967927910407917 13.827466563707478 3.4948468736741463 0 -1 1
806 0 2 0.5897 5.5957226243890865 14.116327111381244 2.080848295182498 0 1 1
805 0 1 -1.1794 5.868135453654952 14.966920023783501 2.445110901402423 0 1 1
579 0 2 0.5897 1.5300742999822594 12.319595813488137 0.0731296786359695 0 0 2
1770 0 2 0.5897 1.0307757562643662 15.410845857518614 0.14705924238638796 0 -1 1
1077 0 2 0.5897 3.784152865815822 15.820143139900988 2.122374456314261 0 -1 0
1343 0 2 0.5897 5.896869175408256 12.97740720296557 0.28984829074919566 0 -1 0
1642 0 1 -1.1794 8.180644452173212 12.10277566289618 2.659745470878306 0 0 1
1644 0 2 0.5897 8.659388912032771 12.698442632390645 2.105769985503618 0 0 1
807 0 2 0.5897 6.833442054654705 14.91329085047493 2.517214914382773 0 1 1
361 0 1 -1.1794 8.52307458098085 15.401632057048108 3.0201144842921472 0 0 0
362 0 2 0.5897 9.025745464987644 15.82364768845357 2.3119032070268797 0 0 0
1357 0 1 -1.1794 10.563301211269856 13.502501459223035 3.78746967223125 0 0 0
1359 0 2 0.5897 10.783163559332118 14.397929302329453 3.6673251976560803 0 0 0
586 0 1 -1.1794 11.605154733190835 13.462329365203049 0.9576397303166194 0 0 0
587 0 2 0.5897 11.369598593983731 14.37554585478197 1.290796059704459 0 0 0
2090 0 2 0.5897 7.6772404268605055 12.838626315579656 4.146781524835878 0 0 -1
1358 0 2 0.5897 9.673240771560229 13.583909740196315 4.148658319148675 0 0 0
588 0 2 0.5897 11.88098434218074 13.039088179951325 1.8094071818326243 0 0 0
1811 0 2 0.5897 10.1387794201859 12.673677145666119 0.15640258976419052 0 -1 0
841 0 1 -1.1794 10.073367889768647 15.84739655923388 0.7530611499946186 0 -1 0
843 0 2 0.5897 9.561757353236446 15.239038485909388 0.2388134749733617 0 -1 0
1055 0 2 0.5897 3.221321341037249 19.497120989760905 2.1171426553888804 0 -1 0
2065 0 1 -1.1794 5.830023679272052 18.50434362726129 3.6117898086870226 0 0 -1
1075 0 1 -1.1794 3.495351251806235 16.756145067261578 2.047396856418942 0 -1 0
1076 0 2 0.5897 2.813752084690851 16.85401797474819 2.753781407101704 0 -1 0
1101 0 2 0.5897 3.0214872386255336 17.790350654395077 0.6636774597995838 0 1 0
2067 0 2 0.5897 5.501286231330209 17.951513902483697 2.921390003660077 0 0 -1
1099 0 1 -1.1794 2.7495744024035265 18.47751030845107 0.05426756412953666 0 1 0
370 0 1 -1.1794 6.439263507109895 16.83453108912823 0.5311120431311982 0 -1 0
371 0 2 0.5897 6.465231373218061 16.216391044701446 1.2957233113861246 0 -1 0
2250 0 2 0.5897 1.0596226638522785 19.022567239758576 0.42744165146229723 1 0 1
1105 0 1 -1.1794 1.5214016138652924 16.7766746056119 4.085436250038824 0 -1 0
1534 0 1 -1.1794 11.615516358841067 16.15642335748394 3.512345536905336 0 -2 -1
363 0 2 0.5897 8.208244131139477 16.242438989747168 3.4443345605197564 0 0 0
2066 0 2 0.5897 6.77345189660828 18.28394963344399 3.6953991559164185 0 0 -1
1535 0 2 0.5897 11.364095442805894 17.031735187451062 3.114394431989234 0 -2 -1
1142 0 2 0.5897 10.979306377591458 19.37579976287116 2.8947397341579015 0 -2 0
1143 0 2 0.5897 10.513775774117223 18.779860463042205 1.580799707512202 0 -2 0
1141 0 1 -1.1794 10.614455793097225 18.532835823449155 2.5262469116168575 0 -2 0
66 0 2 0.5897 9.046950267523547 18.385358564195062 3.297039279671093 0 1 0
497 0 2 0.5897 7.15068683528232 18.353354319251043 0.3312479883930868 1 0 0
64 0 1 -1.1794 8.464646524861884 18.11619916863418 4.058602153060381 0 1 0
842 0 2 0.5897 10.61687536765057 16.43807969387434 0.19704051971874958 0 -1 0
496 0 1 -1.1794 7.512052644576124 19.28210614827689 0.16366579105116738 1 0 0
1572 0 2 0.5897 4.877898538175465 0.661464961707965 4.862923714891925 0 0 0
1570 0 1 -1.1794 4.4287650585363725 1.4370560182483552 4.524746075866156 0 0 0
816 0 2 0.5897 2.994750146625439 2.6600721131972573 6.1004802565443415 0 0 1
814 0 1 -1.1794 2.612474207968349 1.962156138930941 6.71374118418248 0 0 1
815 0 2 0.5897 2.680913532516085 1.132392160286459 6.231470194953012 0 0 1
1094 0 2 0.5897 5.858128261353416 2.433088546343738 4.629213926248595 0 0 0
1093 0 1 -1.1794 6.439621095826349 3.1754230519162365 4.856296628155709 0 0 0
2087 0 2 0.5897 3.7729283573298744 0.9450558689800048 7.909158600884639 0 0 0
79 0 1 -1.1794 5.282686542140948 3.5133915181445903 7.654965544690673 0 2 -1
81 0 2 0.5897 5.521621218667979 3.3898937839301504 6.72135951024512 0 2 -1
109 0 1 -1.1794 6.440813330231895 0.39595369158893545 6.513797630370258 0 0 1
111 0 2 0.5897 5.7133978971972255 0.2815560970802014 7.142018366488915 0 0 0
80 0 2 0.5897 4.421867081867061 3.0889547995521047 7.648534812699888 0 2 -1
839 0 2 0.5897 0.9519143638985116 3.649042205733828 5.566566401585268 0 1 0
1591 0 1 -1.1794 10.496450586190294 0.6444541837564588 6.5039536891108956 0 1 0
1850 0 2 0.5897 8.016449198822777 2.702772980681412 5.713766643516192 0 0 -1
1849 0 1 -1.1794 8.752049062671825 2.8479575933978616 6.362441696165029 0 0 -1
1592 0 2 0.5897 9.862826876850924 1.3839351203691037 6.683391104641818 0 1 0
1851 0 2 0.5897 8.336992105247397 2.9125475271680843 7.241782590508367 0 0 -1
851 0 2 0.5897 11.025347894616038 0.6650646687859896 5.005567585056216 0 0 0
1538 0 2 0.5897 12.205722360327876 3.366264253477241 4.87452484152288 0 2 1
110 0 2 0.5897 7.2042191957102935 0.5166458625178236 7.1197649155576 0 0 1
1593 0 2 0.5897 10.958762021542814 0.42687942557054054 7.422222018394647 0 1 0
1347 0 2 0.5897 11.221638053157188 3.0797351295312323 7.808030795568515 0 -2 0
2260 0 1 -1.1794 3.483377980049504 4.254560358545285 5.402779133656043 1 0 1
2261 0 2 0.5897 3.2455073650503325 4.119378790578648 4.4850680439424 1 0 1
2262 0 2 0.5897 2.958009668904969 5.068181948100308 5.731789288490673 1 0 1
781 0 1 -1.1794 1.4645138643944722 6.171531490968656 6.038054862119137 0 -1 0
782 0 2 0.5897 1.2367779511495762 6.677406956031315 5.239442563773869 0 -1 0
1800 0 2 0.5897 5.5714544796010514 6.513460544140918 5.402363587096486 0 0 -1
1799 0 2 0.5897 5.860612773362548 5.030397212330924 5.0890602616056295 0 0 -1
1798 0 1 -1.1794 6.271401452040971 5.898394165090544 5.177357179721999 0 0 -1
1314 0 2 0.5897 2.0291616542692825 6.434911721049477 7.673038995035589 0 2 0
1637 0 2 0.5897 5.9035272762156055 7.83681831778025 7.9979272595284385 0 0 0
1863 0 2 0.5897 4.177906065837922 6.430044056116617 8.341968552939099 0 -1 1
1862 0 2 0.5897 5.299705579125466 5.351421624354317 8.118318845660161 0 -1 1
2018 0 2 0.5897 10.353211153055275 4.025322214608449 5.995717162178186 1 -1 -1
2017 0 1 -1.1794 11.320217605952664 4.1805988731675 6.101643404848446 0 -1 -1
58 0 1 -1.1794 8.912596302125749 6.737524932277211 4.530063775730846 0 0 0
60 0 2 0.5897 8.053587990812233 6.279578632493167 4.366659665412758 0 0 0
1860 0 2 0.5897 7.529991286099769 6.299622712064674 7.21760125213909 0 0 0
2019 0 2 0.5897 11.455279302903751 5.118343753993732 6.228114585603405 0 -1 -1
2146 0 1 -1.1794 11.071166048872918 6.918839699158743 6.241647110981936 0 0 -1
1859 0 2 0.5897 8.438283443977797 5.483729382034284 8.007189889442898 0 0 0
1858 0 1 -1.1794 8.172965587234318 6.380758285844996 7.919269457612149 0 0 0
2148 0 2 0.5897 10.328192542897815 6.593943435469478 5.726702285532858 0 0 -1
2147 0 2 0.5897 10.83279609336845 7.2951656547539105 7.119881375800149 0 0 -1
2144 0 2 0.5897 12.29462512144708 7.025195184535917 4.801406600315743 0 1 1
887 0 2 0.5897 1.5222629225369002 10.632043850369378 5.315137153923344 0 -1 0
898 0 1 -1.1794 5.894349646876934 10.008424218275337 4.2871996258866165 0 0 1
899 0 2 0.5897 5.616035399484042 10.919750074616744 4.590600445431088 0 0 1
502 0 1 -1.1794 4.089754862903259 8.052867029616776 5.0491767495514415 1 1 0
504 0 2 0.5897 3.40390256641482 8.30922005594755 5.670708976224593 1 1 0
1514 0 2 0.5897 2.134221939903692 8.399110152670977 7.655251088839223 0 -1 -2
503 0 2 0.5897 4.682157434473451 8.83344562813076 5.006333856607951 1 1 0
1513 0 1 -1.1794 2.0606966229705588 9.14967957601085 7.0206109839926185 0 -1 -2
1515 0 2 0.5897 2.3286403992883082 9.815784478050432 7.623727066772032 0 -1 -2
1140 0 2 0.5897 4.180287881468438 11.222048078321782 6.390462484018122 0 0 0
1139 0 2 0.5897 5.548769388541184 11.423893872453709 7.090431658594392 0 0 0
1138 0 1 -1.1794 4.723572253863917 10.825349860131775 7.09326187516074 0 0 0
1636 0 1 -1.1794 6.238290731952108 8.71083159626973 7.903705663656847 0 0 0
1638 0 2 0.5897 5.570785164536253 9.249793815939759 7.432863202302067 0 0 0
886 0 1 -1.1794 1.391723123681103 10.306315299540477 4.413044721848932 0 -1 0
888 0 2 0.5897 1.2211466529475887 9.380967310978388 4.517267014157284 0 -1 0
900 0 2 0.5897 6.764377281318976 9.82310018764672 4.668391865356552 0 0 1
2097 0 2 0.5897 8.23367030087769 8.253375311986517 5.265573415501857 0 0 1
2095 0 1 -1.1794 7.98656747382512 9.114000716801328 5.682052414201068 0 0 1
2096 0 2 0.5897 7.515951582508619 8.822366561906621 6.466769942288504 0 0 1
386 0 2 0.5897 9.643196319699486 10.209828194685139 5.7157195906314895 0 0 -1
385 0 1 -1.1794 10.474184998283265 10.629598644246123 5.362466024875767 0 0 -1
387 0 2 0.5897 11.207910577771834 10.448257300730658 5.965467217991125 0 0 -1
1126 0 1 -1.1794 7.237829433178441 11.918136065863033 7.3379034515524975 0 0 2
1838 0 2 0.5897 5.300710003231616 15.590174333169466 4.406720224308998 0 1 0
1819 0 1 -1.1794 4.546177599039009 12.640069882996537 4.797950512794578 0 0 0
1111 0 1 -1.1794 1.4486264994879203 13.92673179001089 4.218173546225863 0 -1 1
1820 0 2 0.5897 4.794384769139331 13.498290794511455 5.1250537494945485 0 0 0
532 0 1 -1.1794 2.052092151881971 12.453799456083722 6.265138528678444 0 1 0
2055 0 2 0.5897 3.111967414919636 13.724874260177835 7.132546509316748 0 -1 0
533 0 2 0.5897 1.7478778677854092 12.894259692693423 5.464623528336915 0 1 0
1837 0 1 -1.1794 5.031880116977135 15.652366171384864 5.3185840732377025 0 1 0
2054 0 2 0.5897 4.162681680531771 14.785830707743253 6.616819392381473 0 -1 1
2053 0 1 -1.1794 3.771331565801344 14.394936896973624 7.465049870632025 0 -1 1
534 0 2 0.5897 1.235195723762908 12.448522223155514 6.815677942550849 0 1 0
1797 0 2 0.5897 2.4575196853498062 15.852392383830496 7.753436221901199 0 -1 2
1107 0 2 0.5897 1.61997498754658 15.875844402218743 4.416712202676481 0 -1 0
1127 0 2 0.5897 7.546586122351524 12.269269600812699 6.488997664359798 0 0 2
542 0 2 0.5897 10.259705692265955 12.614633513030515 6.007870211246361 0 1 0
2089 0 1 -1.1794 7.927794634913661 13.186535924097766 5.0333097264617805 0 0 -1
541 0 1 -1.1794 10.480319134390957 13.304696179043201 6.670789806596925 0 1 0
543 0 2 0.5897 9.959649492106855 14.128743753389362 6.38099827294152 0 1 0
2091 0 2 0.5897 7.862913754636394 14.156950695351373 4.924388775671674 0 0 -1
250 0 1 -1.1794 8.892365756289438 15.465545690233075 6.019075499662495 1 0 0
252 0 2 0.5897 8.338301819237142 15.618741240884047 6.788271280343075 1 0 0
1128 0 2 0.5897 7.200482760420903 12.693176603876728 7.918298782483431 0 0 2
264 0 2 0.5897 12.162097510504875 13.51347784080422 5.618466288410818 1 -1 0
1073 0 2 0.5897 11.777562381691842 13.783130104820698 7.7846515905145015 0 0 0
1394 0 2 0.5897 9.97136783598057 12.539761185073663 8.112280250612146 0 1 0
1796 0 2 0.5897 1.0345506042376715 16.346674608148465 7.3509673802508955 0 -1 2
1883 0 2 0.5897 1.3778117881228438 19.717881273046775 5.2666421839029045 0 0 1
1795 0 1 -1.1794 1.9854818098358058 16.586620863132982 7.334711380958477 0 -1 2
1106 0 2 0.5897 1.6023075200901034 17.358073720075257 4.794075515160829 0 -1 0
1839 0 2 0.5897 4.896362859690527 16.59251227987173 5.514201011670447 0 1 0
368 0 2 0.5897 5.046391683170136 18.69041866903501 5.7022311494205375 0 0 0
369 0 2 0.5897 3.527681386128961 18.419208160458915 5.981652508061361 0 0 0
367 0 1 -1.1794 4.432920996891518 18.1138917692894 6.197184346022274 0 0 0
1882 0 1 -1.1794 1.9989722596537054 19.198387294981977 5.834825842361927 0 0 1
1884 0 2 0.5897 1.4363772495230727 18.800760711825003 6.47280791084162 0 0 1
600 0 2 0.5897 4.727742379107623 17.688924256915058 8.096364500400782 0 -2 0
1536 0 2 0.5897 11.90633197448756 16.45082193736184 4.374213681278509 0 -2 -1
251 0 2 0.5897 9.46398433284543 16.273027834993467 5.924131058867316 1 0 0
1001 0 2 0.5897 11.353037538665893 17.07002156919473 7.527416229441505 1 0 0
18 0 2 0.5897 9.87788045167598 19.02885606654508 6.504599286524771 0 -1 -1
65 0 2 0.5897 8.971778742968358 18.19345387963774 4.885688929322018 0 1 0
16 0 1 -1.1794 9.473319471321274 18.14024773499422 6.640690545700538 0 -1 -1
17 0 2 0.5897 8.830671571139238 18.18280362065173 7.340343534042523 0 -1 -1
538 0 1 -1.1794 7.542395763077156 16.46280541752516 8.219850039996865 0 -1 1
539 0 2 0.5897 6.7534589580586735 17.00386715914826 8.324728126267017 0 -1 1
273 0 2 0.5897 1.7765630347172912 3.8774438289772726 9.922843973253332 0 0 0
271 0 1 -1.1794 2.323582397241064 3.5826161453152103 9.157796838733496 0 0 0
2086 0 1 -1.1794 4.393556795152437 0.3907593432297889 8.422604438165525 0 0 0
272 0 2 0.5897 1.9612551913739542 2.709603007277915 8.962643165447025 0 0 0
2140 0 1 -1.1794 4.4248374214557975 1.568342998617461 10.840471197074754 0 1 0
2141 0 2 0.5897 3.9830621790194454 2.393951471472823 10.609574089596052 0 1 0
1379 0 2 0.5897 1.227882861069904 1.0387943826931945 11.002584776043243 0 1 0
2142 0 2 0.5897 4.618462681748207 1.2644159722487578 9.92436420443695 0 1 0
1380 0 2 0.5897 1.3088234051779817 0.03902654299683777 9.835638820753314 0 1 0
597 0 2 0.5897 3.1226787635050046 0.28100306173981804 11.922898986923311 0 1 0
1337 0 2 0.5897 6.440817197398671 1.3949335833056804 11.297008052848197 0 1 -1
341 0 2 0.5897 6.6179987922630845 3.0511578285534955 8.672260391448065 0 0 -1
342 0 2 0.5897 7.50505870860292 1.9573638524873826 9.191738741070637 0 0 -1
340 0 1 -1.1794 7.51368947464466 2.8749538565406643 8.957840233776317 0 0 -1
1345 0 1 -1.1794 10.817838276383137 2.810988477559357 8.649333507232546 0 -2 0
884 0 2 0.5897 9.561506127745938 2.4717080509881697 10.783436858300876 0 1 0
885 0 2 0.5897 8.733899088061216 2.1906266253843723 11.972496458134664 0 1 0
883 0 1 -1.1794 9.678681783317016 2.2903123182112743 11.727901808271943 0 1 0
1336 0 1 -1.1794 7.057490253046642 1.6067242867541818 12.03018698757749 0 1 -1
1346 0 2 0.5897 11.489071939850428 2.2516087845415633 9.066554628706328 0 -2 0
1062 0 2 0.5897 7.657146078225334 3.9808745043462945 10.475526502808966 0 1 -1
771 0 2 0.5897 10.094366370770805 0.2244451292676033 11.253176155731131 0 2 0
1338 0 2 0.5897 6.7259938754099 2.3873621132551808 12.513915943906586 0 1 -1
537 0 2 0.5897 11.368686644898625 2.0133467100334426 12.361034538522249 0 1 -2
1114 0 1 -1.1794 1.2685594881464088 6.908478992554434 10.626575843458971 0 0 -1
1115 0 2 0.5897 1.6903020724436237 6.240714697132588 11.216977919073349 0 0 -1
1312 0 1 -1.1794 2.5853362368359765 6.7888393003364715 8.374818778633836 0 2 0
2027 0 2 0.5897 3.6151677250603713 4.269190825670025 10.063002868292239 0 0 0
2028 0 2 0.5897 4.784639774437816 5.440863058734518 10.172414283156458 0 0 0
2026 0 1 -1.1794 4.2970409217611225 4.684656379295645 10.631420594096697 0 0 0
1313 0 2 0.5897 2.0523181075547665 6.760521422029554 9.213448894527025 0 2 0
1890 0 2 0.5897 6.493573833125646 7.691965661583463 10.695941368104203 0 0 1
1861 0 1 -1.1794 5.138897379931102 6.25916220612544 8.489158559405585 0 -1 1
1116 0 2 0.5897 1.754223058189004 7.730234056573552 10.882130088680569 0 0 -1
642 0 2 0.5897 5.321226901511535 4.0280193835964235 12.102853993927265 0 0 0
1888 0 1 -1.1794 5.657530630212964 7.8796615291425525 11.13024838064162 0 0 1
1889 0 2 0.5897 5.867999277092883 7.5624018589885935 11.995919486697929 0 0 1
1352 0 2 0.5897 3.2282797871075797 5.426839052881151 12.185235341526031 0 0 -1
1801 0 1 -1.1794 12.245533567009645 4.907350755797623 12.351940132571105 0 0 -1
2111 0 2 0.5897 10.626989400956466 4.34733734882529 9.62537881954616 0 2 -1
1803 0 2 0.5897 11.594431381849242 4.921259414498723 11.64364697904077 0 0 -1
1550 0 2 0.5897 10.815255579629753 6.6850760600966375 9.259149553134053 0 0 0
1061 0 2 0.5897 7.311626115867201 5.089068339500757 11.587120636344906 0 1 -1
1060 0 1 -1.1794 8.00675239016414 4.762136180417219 10.92559984939525 0 1 -1
2112 0 2 0.5897 9.735845842271491 5.142957482693427 10.583406950368376 0 2 -1
2110 0 1 -1.1794 10.608781342283057 5.180093638622153 10.165222263693822 0 2 -1
864 0 2 0.5897 8.800173486236574 7.32042084880031 11.938433594966478 0 1 0
2051 0 2 0.5897 8.652052931422116 7.293347928503619 9.435728161699254 0 1 0
1549 0 1 -1.1794 11.179102108293593 7.474611457440022 8.815661278837677 0 0 0
2050 0 1 -1.1794 8.777407583553995 7.6951301507142835 10.296522955912378 0 1 0
615 0 2 0.5897 3.6006906580162634 11.335409211257694 8.495424867406028 0 0 -1
1563 0 2 0.5897 4.033910811448776 8.708704556552 10.45010908971574 0 0 -1
1562 0 2 0.5897 3.1425201076693385 9.341859314142587 11.558689850251817 0 0 -1
1561 0 1 -1.1794 3.1437221852560215 9.121895545556422 10.633000208543235 0 0 -1
613 0 1 -1.1794 2.796301336705458 11.152798096537936 8.925900224154017 0 0 -1
614 0 2 0.5897 2.89502507044009 10.394237468919865 9.507347914944352 0 0 -1
291 0 2 0.5897 5.914272662831723 9.713102123088994 11.755173189544836 0 0 -1
289 0 1 -1.1794 6.401401264640292 10.538944945504639 11.966934912667062 0 0 -1
800 0 2 0.5897 11.919890801326982 9.99985036417802 8.699717639945488 0 0 1
1594 0 1 -1.1794 12.1617775568455 9.236166739650901 11.953184082423615 0 1 -1
1551 0 2 0.5897 10.891116820547175 8.296488209806592 9.235125897365338 0 0 -1
290 0 2 0.5897 7.058663745431856 10.570598504167403 11.23949587533147 0 0 -1
2052 0 2 0.5897 8.667446573429757 8.61290568818023 10.06374063097041 0 1 0
801 0 2 0.5897 10.72037900141874 10.773439489517516 9.347290632739925 0 1 1
2075 0 2 0.5897 8.33111910674841 10.856903965949463 9.063834933487243 0 1 -1
2076 0 2 0.5897 7.218034641923291 9.777979222125936 8.999038111942053 0 1 -1
2074 0 1 -1.1794 7.826490559484136 10.239585998478491 9.577292211287883 0 1 -1
1595 0 2 0.5897 11.79272746393978 9.634536644986213 11.134710702187304 0 1 -1
799 0 1 -1.1794 11.338402728864637 10.019996984954311 9.523938377580667 0 0 1
774 0 2 0.5897 5.359605325034962 13.99267864286169 8.442670227962452 0 1 0
772 0 1 -1.1794 6.29600656829893 14.072606545205534 8.725699587845432 0 1 0
632 0 2 0.5897 6.350372001874645 12.473784347492519 11.598049011345891 0 -2 0
563 0 2 0.5897 2.9542454490938725 14.694145072398598 10.13748510147907 0 1 -1
1253 0 2 0.5897 1.868062597592595 12.892121227308952 11.409191027777982 1 0 0
1254 0 2 0.5897 1.9636926190822381 12.463544274343723 9.9327060307438 1 0 0
633 0 2 0.5897 6.44239156727028 13.695592732691564 10.551100714753366 0 -2 0
1252 0 1 -1.1794 1.835691550991329 13.24040673066058 10.499469031253298 1 0 0
564 0 2 0.5897 3.972766832318866 15.348257984967375 11.016926515175802 0 1 -1
562 0 1 -1.1794 3.4551383019339066 15.509161772742022 10.24008869711465 0 1 -1
773 0 2 0.5897 6.5893290943373675 14.96221677571619 8.384059926185884 0 1 0
631 0 1 -1.1794 6.636125161941295 13.395313610620933 11.428262994600347 0 -2 0
1393 0 1 -1.1794 9.870407876681293 12.086495561348746 8.952037424044258 0 1 0
1395 0 2 0.5897 9.570190877473296 12.734602700703102 9.605476827773817 0 1 0
1370 0 2 0.5897 9.758197976800474 13.3968382479268 11.458251697652946 0 0 0
1369 0 1 -1.1794 9.260557761394518 14.000998261510253 10.840486411496206 0 0 0
1793 0 2 0.5897 9.503591998586073 15.643106961466694 10.301727871351952 0 -2 1
1371 0 2 0.5897 8.337056751861638 13.86196612422671 11.033702042791377 0 0 0
1626 0 2 0.5897 11.692048944085677 14.48998430587123 11.417150163816554 0 0 -1
1624 0 1 -1.1794 11.754356277682092 15.233112822883715 12.022445745288524 0 0 -1
49 0 1 -1.1794 10.663542861338755 12.213600200123638 12.374471686008059 0 1 -1
50 0 2 0.5897 11.462884297950659 12.10234492509291 11.803256840216036 0 1 -1
1074 0 2 0.5897 12.06293698650477 15.109047117100245 8.446314407979209 0 0 0
1072 0 1 -1.1794 12.207710568957042 14.169245946038906 8.572217673784946 0 0 0
546 0 2 0.5897 1.4630910534612425 16.825907671163527 12.401967677072136 0 -2 0
2088 0 2 0.5897 3.8440570606831845 19.670051977063967 8.697313017677708 0 -1 0
544 0 1 -1.1794 1.2071404247094324 16.87177493789903 11.432016078775275 0 -2 0
545 0 2 0.5897 1.9027499391962004 16.180893861342785 11.09151798942359 0 -1 0
599 0 2 0.5897 4.500348955477868 16.720015910069773 9.235342453114514 0 -2 0
598 0 1 -1.1794 5.1478589276052515 17.352061465888067 8.900409974052932 0 -2 0
1989 0 2 0.5897 2.3412970355569276 18.138518833462527 8.489852791849367 1 0 1
1988 0 2 0.5897 2.111722397772446 18.07821292577353 9.973970957131353 1 0 1
1987 0 1 -1.1794 2.393134971624871 18.711909608676386 9.271529469137382 1 0 1
596 0 2 0.5897 3.864395112714841 19.134502002953795 12.253118477728508 0 0 -1
1327 0 1 -1.1794 6.080151615329132 18.98263464622668 11.264519605156751 0 -1 -1
1328 0 2 0.5897 5.735262244497317 18.49423996738988 10.500517204859872 0 -1 -1
595 0 1 -1.1794 3.011578952259402 19.537608200620195 12.443051204946808 0 0 0
1780 0 1 -1.1794 8.117541797605412 19.913071021235687 8.870516802318601 0 -1 0
1329 0 2 0.5897 6.789985448024889 18.441423280282375 11.599670961402449 0 -1 -1
94 0 1 -1.1794 12.115025236283277 19.993268440913834 8.827681821599805 0 -1 1
540 0 2 0.5897 8.17928417412108 16.484505255862206 8.95924705021636 0 -1 1
1002 0 2 0.5897 10.780908623036524 16.885518402177986 8.964521853952418 1 -1 0
1000 0 1 -1.1794 11.584567407034681 16.802578552971596 8.420484500182374 1 -1 0
1781 0 2 0.5897 8.916809834540071 19.750935078775996 9.438409511468343 0 -1 0
769 0 1 -1.1794 10.094397346056525 19.472508231393792 10.700240197889975 0 1 0
1782 0 2 0.5897 7.398201047046563 19.628407002094427 9.433340389462924 0 -1 0
770 0 2 0.5897 10.835443622660803 19.608910068669434 10.140230508731388 0 1 0
1794 0 2 0.5897 9.020653772653883 17.068710056284257 10.877439072932274 0 -2 1
1792 0 1 -1.1794 9.537927350907708 16.62736762198326 10.194544593886176 0 -2 1
1830 0 2 0.5897 11.065450225815757 18.391240436208857 11.607097066199477 0 -2 0
778 0 1 -1.1794 8.271371505085702 17.732801251569985 12.33054512095269 0 0 1
1828 0 1 -1.1794 11.89533826569243 17.919286590671327 11.914584875888748 0 -2 0
1829 0 2 0.5897 11.590260533104843 17.01263173177411 11.932608464135209 0 -2 0
1842 0 2 0.5897 0.9874675078513495 1.9653002306440606 13.345739758529838 0 1 0
1840 0 1 -1.1794 1.6779255452067874 2.1106783891406438 12.64485562925724 0 1 0
1589 0 2 0.5897 4.572000736068036 1.1786181057891296 14.104531921501515 0 0 0
1588 0 1 -1.1794 4.065577736680346 1.9933511546534248 14.250092830181483 0 0 0
1841 0 2 0.5897 2.5286151509961323 2.121760221704171 13.119274604447726 0 1 0
1590 0 2 0.5897 4.6770948752616395 2.674212773709074 13.912113452576683 0 0 1
639 0 2 0.5897 5.699025520958314 0.15432377448969234 16.410113907721037 0 1 0
1815 0 2 0.5897 3.0385957908421193 3.032508168755457 16.487208550897154 0 0 -1
640 0 1 -1.1794 5.618685793521372 3.9336065451187348 13.007331634949493 0 0 0
1121 0 2 0.5897 1.7690407498172158 0.14311347082490572 16.460731040716404 0 1 0
1814 0 2 0.5897 3.881148610845182 1.7064004759820515 16.215444261794975 0 0 -1
1802 0 2 0.5897 12.081150804687251 3.9993990035090676 12.709596075094819 0 0 -1
2079 0 2 0.5897 6.79251848708023 0.4675193723317717 14.745682603441235 0 1 0
535 0 1 -1.1794 11.976938615255282 2.0682191778075762 13.10199213825201 0 1 -2
2077 0 1 -1.1794 7.185402381151681 0.9992783730976903 15.487142298254472 0 1 0
1053 0 2 0.5897 7.5719988403292735 2.7238359980919995 15.639914885175942 0 0 0
536 0 2 0.5897 11.445171635598406 2.0410843453726732 13.91153576070417 0 1 -2
1051 0 1 -1.1794 7.846956268812293 3.677833571671424 15.61705418859889 0 0 0
318 0 2 0.5897 9.023053908950748 0.1478454849740251 14.191412882880982 0 0 -1
2078 0 2 0.5897 7.595029994185791 0.4079029655928517 16.15843349937741 0 1 0
1078 0 1 -1.1794 11.632532259588894 2.157401664963832 15.784488534837315 0 1 -1
1080 0 2 0.5897 10.939268860785562 2.6319901881532064 16.33067150984789 0 1 -1
525 0 2 0.5897 9.477530304463025 3.829976429876829 12.885512666915782 0 0 0
5 0 2 0.5897 11.258780372899437 0.5973489359203401 16.62425588989836 0 1 -1
1278 0 2 0.5897 3.1787496128792414 4.683755742966416 14.654674694059496 0 1 0
1351 0 1 -1.1794 2.74207579609316 5.814820912329148 12.942315972290434 0 0 -1
1353 0 2 0.5897 3.1437030693876724 6.690445530279587 13.221930767813815 0 0 -1
1276 0 1 -1.1794 3.321926965858466 4.642368611311679 15.619415027890316 0 1 0
2068 0 1 -1.1794 3.9871611448522595 7.717307633382318 14.81622894085233 0 0 0
2069 0 2 0.5897 3.22603997259349 7.499572346039847 15.319024570347858 0 0 0
630 0 2 0.5897 4.831695232126215 5.233363025224266 16.507111229001264 0 0 -1
641 0 2 0.5897 5.945948983538434 4.816356017213897 13.287897490059386 0 0 0
301 0 1 -1.1794 6.116030153810057 6.392818393820041 13.490563502415126 0 0 1