LAMMPS data file via write_data, version 23 Jun 2022, timestep = 11508000

2268 atoms
2 atom types

0.7151915754086993 46.73550742456494 xlo xhi
0 20.047001 ylo yhi
0 20.857 zlo zhi

Masses

1 1.008
2 15.999

Atoms # full

1735 0 1 -1.1794 1.931416096088175 1.8775985219985725 1.6790866795733284 1 0 1
849 0 2 0.5897 4.850769856151275 2.8981320537908823 3.2066927804959344 0 1 0
50 0 2 0.5897 2.7434080463292445 3.3113662762621687 2.5404835055277575 0 1 0
848 0 2 0.5897 5.435673777269118 1.6794638979163774 3.732903701805011 0 1 0
1736 0 2 0.5897 0.9926431588691973 2.0467605801081152 1.5450748839880746 1 0 1
1737 0 2 0.5897 2.3136755944694625 2.0613812029465466 0.8239937264199251 1 0 1
847 0 1 -1.1794 5.703267520350646 2.559557430181717 3.4235121704746994 0 1 0
1571 0 2 0.5897 1.8003914855385026 0.4006765661346569 4.040955848372604 0 0 0
51 0 2 0.5897 3.2978354955250326 3.702226346840679 3.892639864169754 0 1 0
49 0 1 -1.1794 3.338120480070911 3.899879334514941 2.921253413669036 0 1 0
1128 0 2 0.5897 2.2962837869512356 0.22894706593996944 2.0803354586617617 0 1 3
988 0 1 -1.1794 6.851052045800838 2.4503060328942627 0.8614514104092439 1 0 1
989 0 2 0.5897 6.500517009667462 2.2830479349443826 1.7821490349754843 1 0 1
990 0 2 0.5897 7.619811864135602 2.9786948621119147 1.1063247124214342 1 0 1
1598 0 2 0.5897 11.037862033424698 2.919574453831509 2.6496150989611738 0 0 1
1597 0 1 -1.1794 10.869731848039615 2.290878191972614 1.9604658896641804 0 0 1
1599 0 2 0.5897 10.197249713098586 2.7247262569812714 1.4112286606351732 0 0 1
803 0 2 0.5897 10.03513150611382 0.712235353902511 2.68919208570934 0 0 0
774 0 2 0.5897 7.69235747398055 1.1312119126196571 0.0850009205639079 0 1 0
855 0 2 0.5897 5.087532874286316 5.210405999992381 1.9592395544693542 0 -1 0
1276 0 1 -1.1794 2.4454622362834355 7.038367727295527 2.3455444441332784 0 1 1
1278 0 2 0.5897 2.833003459724033 6.256742963465736 1.9358681722119173 0 1 1
1061 0 2 0.5897 4.438266588217285 6.82522152617907 4.0781258571063335 0 1 -1
1277 0 2 0.5897 2.0130960300258183 6.776724668555809 3.1348197733472083 0 1 1
853 0 1 -1.1794 5.420436019545966 5.875700407305064 2.5534920200731066 0 -1 0
854 0 2 0.5897 5.709198899567498 6.685987959369605 2.054328551883794 0 -1 0
1560 0 2 0.5897 3.457256993435385 4.325384190634654 0.3283830734741222 0 1 1
1558 0 1 -1.1794 3.738383160083352 5.288939981030819 0.2721180372954911 0 1 1
1324 0 1 -1.1794 9.327838627559638 4.4086763487773135 1.0138080402972234 0 1 -1
1306 0 1 -1.1794 10.980176224774858 4.385121233125638 3.679182953040586 0 1 1
1325 0 2 0.5897 8.651560239483224 5.0678173011885 1.345562710452986 0 1 -1
1307 0 2 0.5897 10.2669745714222 4.983052577779873 3.399825648178713 0 1 1
862 0 1 -1.1794 7.922897987285365 5.419788409630976 3.2531629727410665 0 1 0
864 0 2 0.5897 6.966468350482177 5.579141900350642 3.229277503179181 0 1 0
863 0 2 0.5897 8.082291239668699 5.059021956071105 4.124753453649202 0 1 0
1308 0 2 0.5897 11.765543611412493 4.920726289512318 3.545346402726488 0 1 1
61 0 1 -1.1794 8.826317007928758 7.142316093612194 1.583477003075926 0 -2 -1
62 0 2 0.5897 8.689528643373524 6.601914074282513 2.407268079514729 0 -2 -1
63 0 2 0.5897 8.031054534582061 7.684463358945132 1.6772694454300365 0 -2 -1
232 0 1 -1.1794 10.372540323773743 7.588163330593905 3.9795756679229384 1 0 0
234 0 2 0.5897 10.480241538373193 7.917174157194465 3.0585870528040937 1 0 0
1326 0 2 0.5897 9.678908688431028 4.8264578174347195 0.1988413847885367 0 1 -1
283 0 1 -1.1794 5.0286697524752295 10.810240705492014 1.681212434643385 0 0 1
284 0 2 0.5897 4.148229598366244 10.69028696316343 2.1349950523147014 0 0 1
1528 0 1 -1.1794 2.9960236626918895 9.689853448005588 2.9296477941623014 0 0 -1
1530 0 2 0.5897 2.8430424880079888 8.792543055415909 2.538564223356114 0 0 -1
384 0 2 0.5897 5.825456077380616 9.089273712287635 1.8936336265911509 0 1 -1
1133 0 2 0.5897 1.9243841187561999 10.801223894484142 0.5953676602133839 0 0 0
285 0 2 0.5897 5.295802804668346 11.740369279514711 1.8294121287534622 0 0 1
1132 0 1 -1.1794 1.7092810708230761 9.88210305206719 0.3573846433351063 0 0 0
1529 0 2 0.5897 2.272843004957668 9.961458356449327 3.4965411973559783 0 0 -1
383 0 2 0.5897 5.636387202317047 8.316378436230371 0.6273125481411118 0 1 -1
382 0 1 -1.1794 6.168991378940928 8.306092217498898 1.441263422379888 0 1 -1
1388 0 2 0.5897 10.450161841439904 8.500360778004836 0.8193361976734527 0 1 0
777 0 2 0.5897 7.501137670682443 10.110887370580631 3.1122720427658526 0 -2 2
775 0 1 -1.1794 8.095428831584133 10.626374309981472 2.5298021080478703 0 -2 2
1349 0 2 0.5897 8.19923902499729 11.054086581177874 0.7678926308839874 0 0 0
1348 0 1 -1.1794 8.863562983624288 11.115974384250025 0.05585677453895938 0 0 0
1387 0 1 -1.1794 10.837106501443134 9.332603849611157 1.0796169457696345 0 1 0
1389 0 2 0.5897 10.110624767093718 9.921858502450185 0.8822301756422767 0 1 0
776 0 2 0.5897 8.845240565069608 10.799691068919568 3.0853488965183162 0 -2 2
2091 0 2 0.5897 6.772295977834687 11.80612424738462 4.0334567494318065 0 0 -1
1775 0 2 0.5897 12.167039903387066 10.519588267938287 0.7624294748243821 0 -2 0
1140 0 2 0.5897 2.4684840004846835 12.651769534519655 2.111946019076699 0 -1 0
333 0 2 0.5897 5.207803305140449 15.11990024589511 1.7714846111703964 0 1 0
1138 0 1 -1.1794 2.0621868626923785 12.446110361313448 1.2667468263134518 0 -1 0
1139 0 2 0.5897 2.3647511670938552 13.154234217692046 0.7381290200733444 0 -1 0
332 0 2 0.5897 5.1974929862140264 15.510689610373985 3.243739000151933 0 1 0
331 0 1 -1.1794 4.99103846103593 15.906418395641566 2.335590548971611 0 1 0
2065 0 1 -1.1794 2.903629822657663 12.740980044615618 3.907214541906453 0 0 -1
2067 0 2 0.5897 3.7417588175615375 13.214525501021635 3.8409857168394446 0 0 -1
577 0 1 -1.1794 6.0117612034311 13.593345459594646 1.4228785544874138 0 0 2
578 0 2 0.5897 6.641414976159887 13.386962264995658 2.1788944139456135 0 0 2
579 0 2 0.5897 6.527596069770259 13.741537159913374 0.6471831698781492 0 0 2
282 0 2 0.5897 9.513965163054749 12.714217042907302 0.2835300399497037 0 0 1
587 0 2 0.5897 9.768321504946943 13.52644887321454 2.6287302472598784 0 0 -1
280 0 1 -1.1794 9.691291041542206 13.510899381866862 0.8285340306559632 0 0 0
586 0 1 -1.1794 9.628691571984204 13.396564676754252 3.5645618270045385 0 0 -1
281 0 2 0.5897 9.442774747689853 14.279631637277083 0.3625530437839402 0 0 0
1521 0 2 0.5897 8.738343284155182 15.395736895788069 3.581376176142086 0 -3 1
1519 0 1 -1.1794 7.991943826684565 15.76621722077092 3.212784019844898 0 -2 1
2090 0 2 0.5897 7.868288491508032 12.916603532310946 3.9322173029343266 0 0 -1
2089 0 1 -1.1794 6.937664806572218 12.735497784145322 3.772071775456794 0 0 -1
588 0 2 0.5897 9.970586133225341 12.511955718284185 3.7014506790518564 0 0 -1
510 0 2 0.5897 11.949376821513715 13.528450599010135 1.398916989844803 0 0 -1
2105 0 2 0.5897 11.6165812385721 15.43966207256977 2.9479861836849506 0 -3 0
1293 0 2 0.5897 0.8143011944891965 19.185764854199295 0.5139405521831524 0 -1 0
65 0 2 0.5897 1.6626739755127256 16.481549292199308 1.812081379438666 0 1 0
66 0 2 0.5897 3.218058479623336 16.33300514497367 2.22925208526825 0 1 0
1126 0 1 -1.1794 2.8832473435823465 19.661124909783805 2.5800845145299487 0 0 3
1127 0 2 0.5897 2.5509807882330024 18.74174974406244 2.3581021812471157 0 0 3
64 0 1 -1.1794 2.3808091080855918 16.846786474040293 2.293026631988602 0 1 0
1811 0 2 0.5897 5.557801638317375 17.472083559564975 1.42544421094751 0 -1 1
1810 0 1 -1.1794 5.757943434399884 18.262277117031765 0.8512491512791718 0 -1 1
1524 0 2 0.5897 4.2270648926416685 20.040970314863074 4.069960669406575 0 -1 -1
1812 0 2 0.5897 6.008450392142298 18.90677733168353 1.5185978370144315 0 -1 1
1292 0 2 0.5897 2.3101932218362133 19.25570823828959 0.19405026663483213 0 -1 0
637 0 1 -1.1794 7.029649573593651 19.68879664824904 2.8401742367622083 0 -1 1
638 0 2 0.5897 7.972190999499945 19.858205969762288 2.7581439927948774 0 -1 1
802 0 1 -1.1794 9.76898586776085 19.848055472041192 3.003993272833513 0 -1 0
639 0 2 0.5897 7.149665743139978 19.14529027791348 3.650051457687243 0 -1 1
1520 0 2 0.5897 8.319353817123371 16.18943677562151 2.3504852288077314 0 -2 1
2061 0 2 0.5897 11.143611068754064 17.30520721753877 1.2878116894567626 0 0 0
2059 0 1 -1.1794 10.714597191690382 18.052100788707463 0.8180483385250878 0 0 0
804 0 2 0.5897 10.048396669194329 19.310386406863167 2.2700382123624365 0 -1 0
2060 0 2 0.5897 11.298981874032085 18.59267220284755 0.2576993679405166 0 0 0
2104 0 1 -1.1794 11.253920586442478 16.28217768859912 3.116929997465308 0 -3 0
860 0 2 0.5897 9.09338616396194 17.36994155610408 0.32686889529609203 0 -1 -1
861 0 2 0.5897 7.55032390310296 17.45387663705251 0.5638110552631955 0 -1 -1
2106 0 2 0.5897 11.181803555484668 16.354243863338016 4.0972112257012565 0 -2 0
859 0 1 -1.1794 8.25827496119447 16.907805948027747 0.26779216703498376 0 -1 -1
1100 0 2 0.5897 3.944410749015579 1.948235661727008 5.330751419501547 0 2 -1
1778 0 2 0.5897 2.456403881333407 2.512922655517719 7.140522265839273 0 0 0
1099 0 1 -1.1794 3.5056522492201205 2.8313648132598486 5.580283209031034 0 2 -1
1101 0 2 0.5897 4.236256167176403 3.313182760107587 6.048584636747839 0 2 -1
1779 0 2 0.5897 1.3193907773718638 2.6303363228774033 8.102977733089938 0 0 0
1777 0 1 -1.1794 2.3114433392448746 2.48588423965853 8.063924761663204 0 0 0
504 0 2 0.5897 1.3499391826882574 2.907702787943033 5.156101746830776 1 1 0
1570 0 1 -1.1794 1.3918121383207955 0.9681802462375172 4.708860928120673 0 0 0
2140 0 1 -1.1794 5.7443761291369375 3.338960304743701 7.054695719654995 0 1 0
2141 0 2 0.5897 5.669617025724949 2.913665200989045 7.911280526823694 0 1 0
1522 0 1 -1.1794 4.692469345392819 0.41371285749674636 4.832884314052092 0 0 -1
502 0 1 -1.1794 0.7815895337665608 3.6973915890579248 5.142020319503548 1 1 0
2109 0 2 0.5897 7.117433980831906 3.078021865142875 4.574638300921528 0 0 0
2142 0 2 0.5897 6.531345378898103 3.0055294137006454 6.588266890870105 0 1 0
512 0 2 0.5897 9.828000499392159 1.8636614520392214 6.674269459139014 0 2 0
511 0 1 -1.1794 9.920514644403035 1.7499131713045635 5.658481348008969 0 2 0
513 0 2 0.5897 9.847287998529922 0.7914199095251643 5.589558466636833 0 2 0
2108 0 2 0.5897 8.444518636714337 2.7906339117390964 5.23171405222695 0 0 0
2134 0 1 -1.1794 8.54376518372364 1.5775018715270157 7.894272125890653 0 0 -1
2136 0 2 0.5897 8.051561898567662 0.7764350676097405 7.834464849372898 0 0 -1
2107 0 1 -1.1794 7.694376659626487 3.3765027032198227 5.239783192713379 0 0 0
560 0 2 0.5897 11.593767778118805 2.1722137029535573 5.320573558690654 0 1 0
1062 0 2 0.5897 3.684102133659731 7.639080950103809 5.091786358278972 0 1 -1
1060 0 1 -1.1794 4.557793149995226 7.343079712640162 4.902020579429285 0 1 -1
503 0 2 0.5897 1.1406553911099448 4.256938951382954 5.894905932049402 1 1 0
1122 0 2 0.5897 1.3882380045822573 6.560433260533622 5.446661191779518 0 1 1
2042 0 2 0.5897 5.55980349189997 5.409912964110835 7.3923822961144925 0 1 1
546 0 2 0.5897 2.5106142214664082 5.641367590724048 7.302401870979796 0 -2 0
544 0 1 -1.1794 1.6608990876618868 5.508123177235348 6.866908482386139 0 -2 0
2043 0 2 0.5897 4.876091972468149 6.274721229342311 6.231813793234427 0 1 1
2041 0 1 -1.1794 4.6773515902712965 5.806832972673234 7.101619315823938 0 1 1
545 0 2 0.5897 0.9612785252041903 5.894295608585389 7.447300134739441 0 -1 0
1830 0 2 0.5897 4.986431029007572 7.772009894790313 7.936495609081873 0 -2 0
1120 0 1 -1.1794 1.1418053936610078 7.252108047509953 4.795525571001473 0 1 1
305 0 2 0.5897 12.006948241648587 6.9012969645538815 6.213252116318235 0 -2 -1
612 0 2 0.5897 11.245649485569997 5.016203519200021 5.371785087397273 0 0 0
1577 0 2 0.5897 11.685211183723494 4.559886156437457 7.6862455957282085 0 2 0
610 0 1 -1.1794 11.0540216458054 5.268135993117277 6.308215140246891 0 0 0
611 0 2 0.5897 10.1078073742619 5.349764270239337 6.455149963247347 0 0 0
1082 0 2 0.5897 7.851592378187899 4.661971793267384 6.403125357688347 0 0 0
1081 0 1 -1.1794 8.288182682483457 5.307311936984118 7.031878589846788 0 0 0
1587 0 2 0.5897 8.16170264045035 7.1582204229921915 6.3391081436672225 0 -1 2
1083 0 2 0.5897 7.843559801943498 5.321726013049163 7.886436708980286 0 0 0
233 0 2 0.5897 11.248141778967803 7.819006099920172 4.3798400229240935 1 0 0
1586 0 2 0.5897 8.914746301059232 7.440822864200799 5.023155276597965 0 -1 2
1585 0 1 -1.1794 8.279310923850907 7.852849851357933 5.653537986656883 0 -1 2
304 0 1 -1.1794 12.089200471750164 7.876773129143959 6.020421348602449 0 -2 -1
1512 0 2 0.5897 5.812529405308118 8.618441937685793 4.690607905508177 0 1 0
1510 0 1 -1.1794 6.392879406066515 9.326595926063762 4.492171539507671 1 1 0
1828 0 1 -1.1794 5.166943546241912 8.638632313456235 8.30363361009661 0 -2 0
1788 0 2 0.5897 3.5684723773281464 11.424646186879684 5.30357704066832 0 1 0
1786 0 1 -1.1794 4.061641419773906 10.649801899889008 5.662308438421483 0 1 0
1787 0 2 0.5897 4.331550884869097 10.300577233124319 4.830482442320325 0 1 0
1314 0 2 0.5897 2.8021507175351927 10.057420143282013 6.828723429197441 0 2 0
1313 0 2 0.5897 1.5917719299137687 9.329224485337777 7.619090166724588 0 2 0
1829 0 2 0.5897 4.701709336620847 9.36515566212501 7.915523426683627 0 -2 0
1312 0 1 -1.1794 2.542948211456296 9.2462936797403 7.313863125545393 0 2 0
842 0 2 0.5897 1.0659914814379277 11.397287006603374 6.232732415679061 0 0 0
888 0 2 0.5897 1.1954890720816012 9.159266382834389 5.278509021174029 0 -1 0
1770 0 2 0.5897 6.086291436968779 10.985521368023138 6.038758360803203 0 -1 1
886 0 1 -1.1794 0.7529323966557813 10.019255942816585 5.013239434755552 0 -1 0
1511 0 2 0.5897 7.088734054942916 8.851299813088268 5.022566056666735 1 1 0
1088 0 2 0.5897 10.944243819235227 8.847892674749884 6.775882473563717 0 0 -2
1347 0 2 0.5897 9.871247189983707 10.223042985795288 5.313223359200076 0 -3 0
1346 0 2 0.5897 10.99187524544088 10.773158942843734 4.508119674966372 0 -3 0
1087 0 1 -1.1794 10.381640778543048 9.59226263033735 7.163479442175551 0 0 -2
1089 0 2 0.5897 9.49749986667259 9.207003599044848 7.323259231182745 0 0 -2
1345 0 1 -1.1794 10.051390107424657 10.98875288551463 4.700683417998675 0 -3 0
1769 0 2 0.5897 7.300685938790944 10.608095933376488 6.948710300726424 0 -1 1
1535 0 2 0.5897 10.815371918864738 11.150780232374977 8.033279088016048 0 -2 -1
1768 0 1 -1.1794 6.90894970898961 11.357767548915739 6.487272810847075 0 -1 1
841 0 1 -1.1794 1.2351332866866391 12.236568571616418 6.7435386822387615 0 0 0
16 0 1 -1.1794 0.8501917036937383 14.373329113776045 5.074347744728467 0 -1 -1
2066 0 2 0.5897 2.3045219560358703 13.300172202732503 4.3625811994555574 0 0 -1
1891 0 1 -1.1794 4.953383595514172 14.545877160360087 4.843038858761313 0 -1 -1
1893 0 2 0.5897 5.737891021957711 14.017087944815732 4.817353907500028 0 -1 -1
1892 0 2 0.5897 4.751672889062756 14.721598122948837 5.737501205531856 0 -1 -1
843 0 2 0.5897 1.22643589331466 12.926243501971507 6.083163880674554 0 0 0
783 0 2 0.5897 6.462555920643561 12.919604213619738 7.558475984278863 0 -1 0
1001 0 2 0.5897 5.192120987308895 15.987834055432677 7.853381245000654 1 1 0
1002 0 2 0.5897 3.656404468873167 15.817887569218538 7.571585116097684 1 0 0
1000 0 1 -1.1794 4.54200172276534 15.91050475487081 7.1601134831775 1 0 0
17 0 2 0.5897 1.0664855617936855 15.251683217392413 5.309551138898846 0 -1 -1
781 0 1 -1.1794 6.458912154796494 13.79422762865772 7.916372867246936 0 -1 0
1536 0 2 0.5897 10.557436208035913 12.59635460683698 8.007634060992785 0 -2 -1
1025 0 2 0.5897 9.674676699804364 13.1583046939227 5.716969941864835 0 -2 0
1024 0 1 -1.1794 9.14793983087897 13.19099047166326 6.483852782035936 0 -2 0
1026 0 2 0.5897 8.409406584722547 12.635778743056056 6.269303976666176 0 -2 0
1545 0 2 0.5897 8.732454864831237 15.012024549925028 6.975817996169681 0 0 -1
1543 0 1 -1.1794 8.609449940131043 15.945427467394559 6.970842502422267 0 0 -1
350 0 2 0.5897 11.946969492485081 14.483331213956834 5.649347278519908 0 -1 1
1356 0 2 0.5897 1.7976638590710938 17.228355431092545 4.340297732601406 0 0 1
1355 0 2 0.5897 1.2274629831803738 17.747551850552163 5.693403846713613 0 0 1
1523 0 2 0.5897 4.920241343334699 19.78528659620493 5.463208851828016 0 -1 -1
1378 0 1 -1.1794 1.9125369557590701 19.05375461095301 6.731686684034159 0 0 0
1380 0 2 0.5897 2.839134933888493 18.751546746673277 6.6990899282022145 0 0 0
1538 0 2 0.5897 4.6518534917417655 17.37703091333169 6.739083584255507 0 1 1
1537 0 1 -1.1794 4.768852942615976 18.334235373062647 6.605496432155556 0 1 1
1379 0 2 0.5897 1.7926674816185255 19.81727918777659 6.1869190532633525 0 0 0
1539 0 2 0.5897 5.310599317522346 18.722404125113723 7.276338326633375 0 1 1
1592 0 2 0.5897 6.224738368273291 17.606571974840463 5.022075569229064 0 1 -1
1354 0 1 -1.1794 1.0522353487134066 17.145104901607915 4.913672745014865 0 0 1
1896 0 2 0.5897 1.3656649029165648 16.051988412101963 8.263501240317625 0 -1 -1
389 0 2 0.5897 0.7350193100670858 19.44530340792943 8.036851732587294 0 -1 0
31 0 1 -1.1794 6.599669325219406 19.393018179007115 8.314669882863644 0 0 -1
1593 0 2 0.5897 7.417052613409038 16.767391031920564 4.3949107998769765 0 1 -1
2260 0 1 -1.1794 10.985687096100168 16.29924209410468 5.9148836085441685 1 0 1
2261 0 2 0.5897 10.165646097572838 16.299886788533474 6.463932201349368 1 0 1
1544 0 2 0.5897 8.016996782101327 16.231201829112464 6.294548495504915 0 0 -1
1591 0 1 -1.1794 7.196593858076664 17.440668045413165 5.066446331022626 0 1 -1
1833 0 2 0.5897 10.197276455245385 18.96276895837944 7.341660132075096 0 -1 1
1831 0 1 -1.1794 10.808135985220673 19.047939163002813 8.058518831917919 0 -1 1
1618 0 1 -1.1794 9.398487242009567 19.095772963750473 5.637206222123462 0 -1 0
1619 0 2 0.5897 9.576042791852286 18.83267485333044 4.70780734183285 0 -1 0
1620 0 2 0.5897 8.42666608214949 18.828879007695452 5.653724938572408 0 -1 0
1832 0 2 0.5897 11.666879868000665 18.64457378720566 7.7591850501763915 0 -1 1
2262 0 2 0.5897 11.678225899994535 16.758626696754405 6.4356055596117745 1 0 1
2088 0 2 0.5897 1.4300876954429937 1.9993940627490279 12.1207121835942 0 0 0
2144 0 2 0.5897 2.806899370295247 1.1895475620698834 9.268839053310778 0 1 1
2087 0 2 0.5897 2.2502280271312842 0.8595048633913407 11.496099379169669 0 0 0
2143 0 1 -1.1794 3.1963416358707915 0.60440191727175 9.955411379406549 0 1 1
96 0 2 0.5897 5.713509470961882 2.2677801481661795 10.512008931622058 0 0 1
94 0 1 -1.1794 5.587391828355219 1.3047827546534676 10.751706507159506 0 0 1
95 0 2 0.5897 4.711049473152389 1.1384514259309113 10.382213779762107 0 0 1
1890 0 2 0.5897 3.7477275779809665 2.668229215969946 12.008525038482741 0 0 1
1330 0 1 -1.1794 1.2228393831770183 3.7571295671631373 11.86370028498435 0 0 -1
2086 0 1 -1.1794 1.4997711038429882 1.0145439982200395 12.098103358476651 0 0 0
625 0 1 -1.1794 5.553488601048615 3.9535136612293296 10.586813571633842 0 1 -1
799 0 1 -1.1794 11.402247263972717 1.47569593621226 8.981399885121803 0 1 1
801 0 2 0.5897 11.247616013648132 0.654086197238831 8.497048419260365 0 2 1
2135 0 2 0.5897 8.814348920756178 1.8089220190370132 8.8183647705008 0 0 -1
1561 0 1 -1.1794 9.290005945523948 2.038166413493416 10.830999244511862 0 0 -1
1563 0 2 0.5897 10.163843891398567 1.7467264498087507 10.369004288600497 0 0 -1
1562 0 2 0.5897 9.01538724035597 1.2677109281099772 11.311452559517777 0 0 -1
881 0 2 0.5897 8.989402380435331 3.3258392605326947 12.190097997315553 0 2 -1
2024 0 2 0.5897 6.79655964034858 0.21315838783553542 11.344691193874796 0 1 -1
1578 0 2 0.5897 11.49664751963794 3.240226723003295 8.616517421797978 0 2 0
1855 0 1 -1.1794 11.867673783999136 3.75623777959089 12.295365379404869 0 0 1
800 0 2 0.5897 12.14132453569093 1.2100157832431024 9.564718567259684 0 1 1
1863 0 2 0.5897 2.603969147472532 4.155930509970427 9.082741701654822 0 -1 1
1054 0 1 -1.1794 1.0602110267946858 7.480544130465267 11.76545492326606 0 0 -1
1862 0 2 0.5897 2.2370211001098044 4.474087687461242 10.550240057875888 0 -1 1
626 0 2 0.5897 4.734714473314344 4.339108877869232 10.27350394137306 0 1 -1
627 0 2 0.5897 6.21870672733974 4.607431663242393 10.3303382559703 0 1 -1
1861 0 1 -1.1794 2.8906888671855926 4.740191630097114 9.849235173635966 0 -1 1
386 0 2 0.5897 2.796562260358631 7.876313123380006 8.714647379922884 0 0 -1
387 0 2 0.5897 3.0902275287850762 6.451401875688446 9.337078286236995 0 0 -1
385 0 1 -1.1794 2.90347514368877 7.392006148058229 9.559757058913107 0 0 -1
45 0 2 0.5897 4.959414819273398 5.735168980444347 12.202190616332466 0 0 0
1809 0 2 0.5897 6.1671566095975185 7.690398271241676 11.420008473862488 0 -1 -1
1055 0 2 0.5897 1.6402482068558804 7.383676558444937 11.006153739354056 0 0 -1
1576 0 1 -1.1794 11.806015377128281 4.194421236661764 8.585621826390506 0 2 0
1856 0 2 0.5897 11.204559633118903 4.320490704743243 11.857572833589057 0 0 1
60 0 2 0.5897 10.736013467095367 4.806555793224708 9.925284278815091 0 0 0
109 0 1 -1.1794 7.79798718228751 5.560608451387836 10.033029208816515 0 0 1
110 0 2 0.5897 8.599081070144802 5.492145633990785 10.520984644204011 0 0 1
111 0 2 0.5897 7.536615680170408 6.476806134258076 10.23083549750992 0 0 0
58 0 1 -1.1794 10.572904587074099 5.476225721164062 10.5794729733324 0 0 0
59 0 2 0.5897 10.874934674441395 6.294381992593781 10.21647582778089 0 0 0
2082 0 2 0.5897 8.699047920963821 7.6294051729948755 11.985431467636168 0 0 0
1808 0 2 0.5897 6.057774806588155 8.657381608938106 10.155739375449771 0 -1 -1
1056 0 2 0.5897 1.253709012795985 8.413896815324426 12.078088200236158 0 0 -1
1107 0 2 0.5897 3.8597629718964184 8.978405892353498 10.320499324892815 0 -1 0
1105 0 1 -1.1794 3.836503160258113 9.77741311648093 10.87830972921828 0 -1 0
1086 0 2 0.5897 5.19213256025803 10.965963480075816 11.635930281955568 0 1 0
542 0 2 0.5897 3.202255949012354 11.325136701206981 9.823650093039682 0 1 0
1084 0 1 -1.1794 5.608703580090463 11.842570593342067 11.663671640594744 0 1 0
1106 0 2 0.5897 3.631750759250303 9.436118357964979 11.785766033688377 0 -1 0
543 0 2 0.5897 2.414585191064045 11.59322652732176 8.531304617523993 0 1 0
1075 0 1 -1.1794 7.87173815104178 9.356478282629242 8.39768097570856 0 -1 0
1077 0 2 0.5897 6.911364296341097 9.178913619402335 8.582556834196444 0 -1 0
1807 0 1 -1.1794 6.6438298114308525 8.071686268095759 10.636131762588535 0 -1 -1
1534 0 1 -1.1794 10.99820832860826 11.94965007568075 8.529754886309929 0 -2 -1
1057 0 1 -1.1794 11.268554633466909 8.101711428834408 9.769074107830207 0 1 -2
1085 0 2 0.5897 6.559652589058334 11.5601876912216 11.590194342697215 0 1 0
1059 0 2 0.5897 11.104272617002845 8.683688334261689 9.04123946758223 0 1 -2
2080 0 1 -1.1794 9.228752959275457 8.3304853554982 11.510384001224338 0 0 0
2081 0 2 0.5897 8.572468692262715 8.65025827084239 10.901423983348925 0 0 0
1076 0 2 0.5897 8.140056285350001 9.97411988851016 9.1099192087435 0 -1 0
372 0 2 0.5897 9.072265659209894 10.981127834798512 11.065953488865539 0 0 -1
370 0 1 -1.1794 8.240914083811877 11.155641085849123 10.572739411631199 0 0 -1
2123 0 2 0.5897 11.280492633871111 9.623434475855388 12.133415709426329 0 0 -1
2026 0 1 -1.1794 10.953908470937348 11.323942741299357 11.11540738189112 0 -1 0
1058 0 2 0.5897 10.560517096156799 8.176443072492333 10.451526127073853 0 1 -2
2028 0 2 0.5897 11.17651278280877 11.667493593891262 10.240412814519589 0 -1 0
541 0 1 -1.1794 2.880258439179522 12.033896697902254 9.24125975487969 0 1 0
782 0 2 0.5897 5.839903722998647 13.757341061988134 8.617486862608102 0 -1 0
778 0 1 -1.1794 1.5882027824695957 13.99307904300935 10.608045994108187 0 0 1
1895 0 2 0.5897 1.9626160254117457 15.343284092502842 9.489596936486034 0 -1 -1
1859 0 2 0.5897 3.9667281206456977 13.707838449004639 9.602644323377685 0 -1 0
1860 0 2 0.5897 5.059796944878911 13.266636652991997 10.643729750330607 0 -1 0
1858 0 1 -1.1794 4.815686350781095 13.974285978092912 9.962121202213854 0 -1 0
780 0 2 0.5897 2.06484259065489 14.076918632443178 11.433290022268721 0 0 1
779 0 2 0.5897 1.8807001368692404 13.175797157666643 10.130656649425386 0 0 1
1514 0 2 0.5897 5.1324402292143105 15.593451151690514 11.37814105111882 0 -1 -2
1894 0 1 -1.1794 2.192436863959534 15.954179320509903 8.72436304307449 0 -1 -1
81 0 2 0.5897 1.8855074332145854 16.020734245169375 12.450549638166084 0 2 -1
2027 0 2 0.5897 10.978576651031723 12.041732096406523 11.789735017787182 0 -1 0
371 0 2 0.5897 8.416170408372981 12.053579704911822 10.192654667593924 0 0 -1
606 0 2 0.5897 7.857271852309877 13.83868358910994 8.962009741555985 0 0 2
605 0 2 0.5897 9.22213242101118 14.33627921367054 9.514699759346032 0 0 2
604 0 1 -1.1794 8.580161678149405 13.62902401001254 9.601781592439684 0 0 2
297 0 2 0.5897 10.910714420088611 15.711029691992724 9.135517843814172 0 2 -1
3 0 2 0.5897 11.551924460560809 15.816980844241405 10.981048516873038 0 -1 -1
295 0 1 -1.1794 10.342453119969738 15.732501076753044 9.960114129578313 0 2 -1
2112 0 2 0.5897 8.115185468311786 14.151587977609712 11.82282700600579 0 2 -1
32 0 2 0.5897 6.373325609809821 19.868083319204324 9.092651392217864 0 0 -1
598 0 1 -1.1794 1.2336557012325815 17.62124913005587 11.915015402155907 0 -2 0
2145 0 2 0.5897 2.960356556998514 19.745433365378968 9.676092878862194 0 0 1
1515 0 2 0.5897 5.989037218475508 16.568033563413692 12.159217061887581 0 -1 -2
1513 0 1 -1.1794 5.3413824270546 16.551623129391512 11.442434764009038 0 -1 -2
1608 0 2 0.5897 3.374974926010726 17.731061386349744 9.41367525850128 0 -2 1
1607 0 2 0.5897 4.145410723189903 17.738206500708507 10.804606419266136 0 -2 1
1606 0 1 -1.1794 3.4344554120495885 18.204996522057137 10.27533807422402 0 -2 1
599 0 2 0.5897 2.032374417371196 17.87877503966967 11.417140158399532 0 -2 0
867 0 2 0.5897 6.45528103380957 16.416320752834643 9.824346443480252 0 -1 2
2023 0 1 -1.1794 7.1883086988919755 19.41556090473612 11.645282374467474 0 0 -1
33 0 2 0.5897 6.712190007744302 18.4439353829712 8.63882720084497 0 0 0
865 0 1 -1.1794 6.57828726402576 16.71448492675887 8.883037330172634 0 -1 2
866 0 2 0.5897 7.378942924565438 16.37741774882739 8.490844673836795 0 -1 2
296 0 2 0.5897 9.992821057314817 16.628930978732765 9.997200874524527 0 2 -1
1317 0 2 0.5897 9.873402375141502 18.653979105681433 9.456304463666214 0 2 1
1315 0 1 -1.1794 9.457148229208203 18.26417949067341 10.2351758560711 0 2 1
1316 0 2 0.5897 10.07332235838177 18.429971119858635 10.950400398069608 0 1 1
2025 0 2 0.5897 7.788119912759779 19.025094752854827 11.002048987784086 0 0 -1
2095 0 1 -1.1794 10.94081682897444 19.043739860496057 12.246215462476755 0 0 1
2 0 2 0.5897 12.166269000205663 16.226971670507474 12.373617464192098 0 -1 -1
1888 0 1 -1.1794 3.8094871512368673 2.460098843190223 12.95690620329781 0 0 1
1876 0 1 -1.1794 1.3286808495936944 2.6539765180958432 14.977453745144869 0 0 1
1889 0 2 0.5897 2.9327276237781414 2.6942075404661145 13.277115366806369 0 0 1
2084 0 2 0.5897 5.029776773339119 3.4819722399422623 13.761332511192792 0 0 1
1148 0 2 0.5897 2.2830118220944216 1.542504248719495 15.850301089277698 0 1 -1
1877 0 2 0.5897 1.4118005686623967 3.468031889810134 15.434837475196833 0 0 1
1110 0 2 0.5897 5.11875988485053 0.7849050917246732 13.136838359060215 0 2 1
1147 0 1 -1.1794 2.6422822813175997 0.9203116137078999 16.505565580167882 0 1 -1
57 0 2 0.5897 6.042553125412602 1.1836324019274216 15.523308890856795 0 2 1
2083 0 1 -1.1794 5.873828571894286 3.8447629263536647 14.155120064427702 0 0 1
1802 0 2 0.5897 6.281014244919065 3.7194374515237563 16.227341445698332 0 0 -2
1108 0 1 -1.1794 5.527818813357549 0.24311390367457844 13.827465140548279 0 2 1
1149 0 2 0.5897 3.0358416792275196 0.11789510406059664 16.117436039196 0 1 -1
55 0 1 -1.1794 6.679840461975593 1.205432282610444 16.230284279706026 0 2 1
1074 0 2 0.5897 11.882377946467372 1.3493866457649577 14.1464847657546 0 0 0
1857 0 2 0.5897 11.439248776798465 2.9260580410629777 12.596195498259922 0 0 1
56 0 2 0.5897 7.582344277279682 1.4624457512357458 15.886762976127994 0 2 1
880 0 1 -1.1794 8.582622062035403 3.587341275909389 12.988048704167861 0 2 -1
2085 0 2 0.5897 6.534707056744784 3.678449236756595 13.505133795917306 0 0 1
1590 0 2 0.5897 8.911143368035622 2.7350758935867545 14.820783462285261 0 0 1
1588 0 1 -1.1794 9.036671218651604 2.0142458931159473 15.39677796021421 0 0 0
1073 0 2 0.5897 10.361593512384122 1.5705850675384116 14.240483893274243 0 0 0
1072 0 1 -1.1794 11.06045821459635 1.4337875546106957 13.596657461773688 0 0 0
1589 0 2 0.5897 9.299143303200104 2.5290111439217613 16.198881875429695 0 0 0
43 0 1 -1.1794 5.402835521245293 6.531281111016611 12.569106663642483 0 0 0
1331 0 2 0.5897 1.2524410537531017 4.436032337111983 12.545841542034443 0 0 -1
1634 0 2 0.5897 1.7474012620196249 6.682425021725535 13.306679599901505 0 1 -2
44 0 2 0.5897 4.710700359923965 7.060063252589212 12.965170506838618 0 0 0
816 0 2 0.5897 4.92181032479219 5.6852398949644884 14.950544490968873 0 0 1
1633 0 1 -1.1794 1.9318001419297188 5.890953288361038 13.890294294630271 0 1 -2
1635 0 2 0.5897 2.7267703255694995 6.139583088697217 14.383610500440579 0 1 -2
815 0 2 0.5897 4.487466721190412 7.031376434116547 15.622975082377144 0 0 1
814 0 1 -1.1794 4.256429206395155 6.101397972335892 15.533767606426647 0 0 1
1091 0 2 0.5897 2.8515664080630674 5.296926407228283 16.45214798711992 0 0 0
759 0 2 0.5897 11.98552996648595 6.349535457724697 14.43520204519784 0 1 -1
882 0 2 0.5897 8.877250493815742 4.445067364995542 13.175184094221095 0 2 -1
1621 0 1 -1.1794 8.483777989029523 6.503241467207699 13.258415713934108 0 1 0
1622 0 2 0.5897 9.1169796835693 6.835751878599445 13.878332610085533 0 1 0
1623 0 2 0.5897 7.6866795098802925 6.406142978436761 13.775100076931533 0 1 0
1371 0 2 0.5897 10.05254719103469 5.025514241029254 15.76386978869607 0 0 0
1370 0 2 0.5897 8.606864007801523 5.2278701464284705 16.135410495573456 0 0 0
1369 0 1 -1.1794 9.410698735342676 4.712539427195741 16.396524191388632 0 0 0
1399 0 1 -1.1794 6.940080300287316 6.828682007863759 15.495124257598096 0 0 -1
1400 0 2 0.5897 6.7601552450135145 7.815526538506066 15.47545413502629 0 0 -1
532 0 1 -1.1794 10.695492154745917 7.649306161043936 14.419603917648738 0 1 0