LAMMPS data file via write_data, version 23 Jun 2022, timestep = 19062000

2268 atoms
2 atom types

0.4710673790366968 46.97963162093269 xlo xhi
0 20.047001 ylo yhi
0 20.857 zlo zhi

Masses

1 1.008
2 15.999

Atoms # full

1140 0 2 0.5897 4.380687463676896 1.3400613010204123 2.7273683733236247 0 0 0
1512 0 2 0.5897 2.1609692313597586 1.9367412733818838 0.843649600410822 0 2 0
1510 0 1 -1.1794 2.5434505841372372 1.0599975522712684 0.6755815545438036 1 2 0
1089 0 2 0.5897 3.0343647551594 3.0306431177636783 3.2798528675282896 0 0 -1
1511 0 2 0.5897 2.3219687704293372 0.5010784052451359 1.4507439148107653 1 2 0
2140 0 1 -1.1794 4.321191367102792 3.3122998717174834 2.335659329080124 0 0 0
2142 0 2 0.5897 4.874960331563566 3.6655811587941227 3.0186657201473945 0 0 0
2141 0 2 0.5897 3.833569922707944 3.9976510479520333 1.8419034090479083 0 0 0
862 0 1 -1.1794 1.204211902211636 3.6348602480798826 1.150411611199318 0 1 0
1138 0 1 -1.1794 4.800202818837552 0.5115461966707965 2.975811546446777 0 0 0
2010 0 2 0.5897 0.5025747078714256 0.8274344669870974 2.6546385481614894 0 0 0
2008 0 1 -1.1794 1.1016858322932261 0.13915303378309335 2.918553922450442 1 0 0
2009 0 2 0.5897 0.9054929936053868 0.10337864923255664 3.863243574451917 1 0 0
1088 0 2 0.5897 1.8837637468279549 2.1180954624540074 3.8000631204069726 0 0 -1
1087 0 1 -1.1794 2.3543497061379335 2.906349561216451 4.038137095185301 0 0 -1
2144 0 2 0.5897 3.9706550416613084 0.5853005026532421 0.04005920321882223 0 1 1
521 0 2 0.5897 6.399718248874114 1.2565180176877895 0.20885664505676466 0 -1 0
63 0 2 0.5897 7.898134102742465 2.8471730337561962 0.7450017756931866 0 -2 -1
1772 0 2 0.5897 7.64435521188723 1.3853287603893012 2.156427790267307 0 0 0
26 0 2 0.5897 11.408563893499071 1.0495390752760905 1.7417293525031685 0 -1 2
1771 0 1 -1.1794 7.708169482692521 1.2837260842147378 3.125327842570967 0 0 0
27 0 2 0.5897 11.489040653990784 1.9523668040265851 2.968088320498645 0 -1 2
647 0 2 0.5897 11.046010917296162 3.207345721747957 1.0402474084805082 0 0 0
520 0 1 -1.1794 7.368250984720612 1.333308778774348 0.12085968987704485 0 -1 0
25 0 1 -1.1794 11.931135106248282 1.7126619951906812 2.1472925825298788 0 -1 2
62 0 2 0.5897 9.176499197501478 3.9182509621864976 1.0361943923366181 0 -2 -1
61 0 1 -1.1794 8.156420971601456 3.785431284522167 0.8843861329908197 0 -2 -1
1379 0 2 0.5897 8.93847211897425 0.27585420798378896 3.479592849799535 0 1 0
1773 0 2 0.5897 6.791374978918532 1.3956748543039361 3.522546409548906 0 0 0
864 0 2 0.5897 0.7198009041054038 4.154030207033055 0.49317658495437605 0 1 0
1489 0 1 -1.1794 1.6001560264952437 6.196714725930442 2.33865782131225 1 1 1
1016 0 2 0.5897 2.4408852602966125 7.3701263090339415 1.3416932816951925 0 -1 0
1490 0 2 0.5897 2.3149406649462727 6.053772007558843 2.989798464307749 1 1 1
1491 0 2 0.5897 1.5439326967315643 5.359954127815397 1.7601340877027114 1 1 1
1285 0 1 -1.1794 5.8104731884069 7.810656984396819 2.919202597793826 0 0 1
1053 0 2 0.5897 5.629458882632 5.5531823785929815 0.5264424584483132 0 -1 1
1015 0 1 -1.1794 2.815266178996524 7.536176118324365 0.4840614068997216 0 -1 0
1788 0 2 0.5897 3.442248245323613 5.79139085007082 0.12402015386726489 0 0 1
1287 0 2 0.5897 5.9239390716178395 7.130480206528006 2.2394270986893297 0 0 1
989 0 2 0.5897 4.532311065761127 6.645039685355671 3.8696881354744788 1 -1 1
988 0 1 -1.1794 3.778338415246929 6.071403379183223 3.995292952945956 1 -1 1
1737 0 2 0.5897 8.089905411110603 4.2210865421627775 2.6420212048818628 1 0 3
646 0 1 -1.1794 10.859583279410954 4.090516721244024 1.1990102205729074 0 0 -1
1051 0 1 -1.1794 6.516442255735223 5.917179085276541 0.8284225817904 0 -1 1
390 0 2 0.5897 11.224493257793661 4.612399368303796 3.1842684400305727 0 -1 0
1052 0 2 0.5897 7.077029065471783 5.1729551582453075 0.8531246637577717 0 -1 1
567 0 2 0.5897 9.353605001753579 7.449891438413807 2.2319233184196214 0 -1 -3
1061 0 2 0.5897 11.466678304466397 7.597091332541246 1.4414288019902566 0 1 -1
102 0 2 0.5897 6.94714991907126 7.788398278494033 0.39528878900109937 0 2 0
565 0 1 -1.1794 8.783895740356858 7.337417156377534 3.040553471033963 0 -1 -2
566 0 2 0.5897 9.03542980905938 7.995833412418902 3.6954424038057527 0 -1 -2
1735 0 1 -1.1794 8.438462061476706 4.510471118379931 3.533796159075142 1 0 3
1736 0 2 0.5897 8.508381811240685 5.484253828260331 3.4254732797823335 1 0 3
648 0 2 0.5897 11.4306605843508 4.481758732941568 0.5078032527865296 0 0 -1
1286 0 2 0.5897 6.768344269816959 7.839453874938818 3.184344400489101 0 0 1
1060 0 1 -1.1794 10.67306963558316 7.629311707096484 0.9471665836741857 0 1 -1
388 0 1 -1.1794 11.927576095164449 4.993889860076943 3.800825428215873 0 -1 0
1017 0 2 0.5897 3.4709826384491906 8.25122766721957 0.5887970171373937 0 -1 0
581 0 2 0.5897 3.1730171775701437 9.420376983313028 2.5143957795459757 0 -1 1
582 0 2 0.5897 4.675313213883871 8.959330213813718 2.4293009646430797 0 -1 1
580 0 1 -1.1794 3.988294102555165 9.501258377102577 1.9928689279658662 0 -1 1
1820 0 2 0.5897 4.534489458443749 10.456851192455563 0.8380072295858717 0 0 0
2095 0 1 -1.1794 1.5378047921860079 9.092473194986615 3.383821335943244 0 1 3
780 0 2 0.5897 3.778707293902629 11.4717922633165 3.309469470646301 0 0 2
778 0 1 -1.1794 3.1025380103326907 11.783118457325024 3.945113260611244 0 0 2
2096 0 2 0.5897 1.4040490622366963 8.262820971116868 3.854378254700534 0 1 3
2097 0 2 0.5897 1.125853512739373 9.828464834682189 3.934799334746101 0 1 3
1819 0 1 -1.1794 4.7853703834241745 10.944633829990734 0.025313255506089424 0 0 0
1821 0 2 0.5897 4.684070782139482 11.871491500916965 0.22628659415286737 0 0 0
1836 0 2 0.5897 6.465996404447674 12.017829025492333 2.460807496837925 0 0 1
1062 0 2 0.5897 10.664241815267326 8.41082039095593 0.41923688028960426 0 1 -1
1647 0 2 0.5897 7.774848535435407 9.873456808568873 1.7355687339598425 0 -2 0
1646 0 2 0.5897 8.434611665817558 10.431514064643139 3.090184213116467 0 -2 0
1645 0 1 -1.1794 7.975588164148249 10.649571681618152 2.2767178704949584 0 -2 0
1296 0 2 0.5897 8.831791035775854 11.954731405558388 1.547430413691573 0 0 0
100 0 1 -1.1794 7.2507345531287255 8.770153320059624 0.32269062371253454 0 2 0
2138 0 2 0.5897 0.8698977918222999 12.110091305110867 1.662142243491464 0 2 0
1834 0 1 -1.1794 6.063045177122497 12.57640595435956 3.1392690380632238 0 0 1
2137 0 1 -1.1794 1.1736144470599879 12.991457355504702 1.9045424840848728 0 2 0
1904 0 2 0.5897 2.1440819376538247 14.970667240511702 3.705738813588142 0 -1 1
1815 0 2 0.5897 5.144165881200591 15.461784995723061 2.749463604363035 0 -1 -2
2114 0 2 0.5897 2.6945442829819246 13.422020472557154 0.65226186094861 0 -2 1
1814 0 2 0.5897 4.580207122344724 14.587985982656118 1.5985978413598367 0 -1 -2
1813 0 1 -1.1794 5.4009401737595875 14.82920046863116 2.069760401131015 0 -1 -2
846 0 2 0.5897 1.6831104019142535 15.655017743542922 1.2219894870269812 0 -1 -1
779 0 2 0.5897 2.476592668302972 12.3149248565857 3.4024268830829056 0 0 2
2113 0 1 -1.1794 3.612431957377572 13.704758960545357 0.34018489498839466 0 -2 1
1835 0 2 0.5897 5.864133616556314 13.439510392782351 2.772687923057437 0 0 1
569 0 2 0.5897 6.6071092146153845 15.34767642957877 0.9216340492566947 0 -1 1
1294 0 1 -1.1794 9.382563545423222 12.703529515322897 1.1738462242113865 0 0 0
2268 0 2 0.5897 9.396795419761213 13.247002890922314 3.1373356106404 1 -1 1
2266 0 1 -1.1794 9.232030971641876 13.283458440493446 4.08248341563106 1 -1 1
1082 0 2 0.5897 10.976435262159125 12.942602841581701 1.3526536620144018 0 0 0
1295 0 2 0.5897 9.253394417453062 12.549833336122445 0.2265935272651071 0 0 0
1081 0 1 -1.1794 11.939655484808995 12.785353972676301 1.3790805866975564 0 0 0
570 0 2 0.5897 7.835357838730572 15.808863774326742 0.044620898643870206 0 -1 1
568 0 1 -1.1794 6.851571827521097 15.88454102953949 0.12112038232522744 0 -1 1
1538 0 2 0.5897 12.091581559181833 14.441377716837835 3.938227259182706 0 1 1
1139 0 2 0.5897 4.215314060819656 19.91767184375583 2.5147139534606064 0 -1 0
844 0 1 -1.1794 1.6689972858772777 16.052398606908206 2.1323795805134114 0 -1 -1
845 0 2 0.5897 0.7836005339984977 16.373456527266633 2.2378819034441437 0 -1 -1
810 0 2 0.5897 2.520259476548101 17.808845749234532 2.0702866972928367 0 -2 1
808 0 1 -1.1794 3.3487953140041222 18.32545348094689 1.9625985905168835 0 -2 1
809 0 2 0.5897 3.8125139948305913 18.12917776863941 1.116176884917529 0 -2 1
1505 0 2 0.5897 4.189160209483791 17.34317931102828 3.5836928691756453 1 0 0
1504 0 1 -1.1794 5.060635634696978 16.980314084941305 3.77610329992915 1 0 0
758 0 2 0.5897 6.085404688994151 18.078312511867807 2.9736487050915645 0 0 0
2240 0 2 0.5897 11.847822282490927 19.981195839812298 4.011338537099393 1 1 -1
791 0 2 0.5897 11.617690272223978 19.300476584079934 0.5835488986669438 0 -5 2
1127 0 2 0.5897 10.013953857056181 16.926219017525476 1.2116966793449917 0 1 4
1126 0 1 -1.1794 10.391115881715436 16.981011539433155 2.0770472882190094 0 1 4
757 0 1 -1.1794 6.867964649832584 18.408360569559587 2.5148919975301602 0 0 0
1484 0 2 0.5897 7.618691644026608 18.624871677851072 0.8376587784610504 1 0 -1
759 0 2 0.5897 7.041493056802884 19.268464142869338 2.827330937127579 0 0 0
1380 0 2 0.5897 9.633756137436423 18.877274430082657 3.2868158927573528 0 0 0
1378 0 1 -1.1794 9.772122748845046 19.795253838442846 3.5620842427182953 0 0 0
790 0 1 -1.1794 10.885275137603383 19.91241129660784 0.2917833519438116 0 -5 2
792 0 2 0.5897 10.003521234012009 19.510969347636863 0.4808258272984264 0 -5 2
1808 0 2 0.5897 8.550973375055854 17.153865378073863 3.371139252569444 0 -1 0
1128 0 2 0.5897 11.36725921109873 16.73238451566894 2.024887200129841 0 1 4
1860 0 2 0.5897 5.14284988582577 0.5671105466264097 4.562880268667114 0 -1 0
1149 0 2 0.5897 3.4799848951908277 2.7034593577036317 5.519760974742457 0 1 0
1147 0 1 -1.1794 3.996890862994117 2.7177021193093855 6.34404821860824 0 1 0
1619 0 2 0.5897 2.8594996005656093 1.8016833017549756 7.285775779582887 0 1 1
1618 0 1 -1.1794 2.0962810688213596 1.5208246715158573 7.843659531166658 0 1 1
2069 0 2 0.5897 0.9673832033591041 1.0909019000888385 6.538990319263014 0 -1 1
1858 0 1 -1.1794 5.557932353051098 0.5791441644302652 5.428782318219827 0 -1 0
1859 0 2 0.5897 5.407024698290325 1.4538634483320731 5.776606731173051 0 -1 0
1148 0 2 0.5897 3.860057972731891 3.646308955074502 6.6524872141978655 0 1 0
2068 0 1 -1.1794 0.4819044192920471 1.0475810267693046 5.711113026081409 0 -1 1
2091 0 2 0.5897 1.361865733290567 3.7446869761062476 5.26627714040449 0 1 -1
2015 0 2 0.5897 5.728029642528115 2.512214777151274 8.11878421812002 1 0 -1
1283 0 2 0.5897 6.479370718955805 3.4593451599860856 6.112337208981027 0 0 0
626 0 2 0.5897 9.997023999909336 3.3719239801227006 4.421390752552616 0 2 0
625 0 1 -1.1794 10.633525946206362 2.704606236522901 4.622409378855516 0 2 0
627 0 2 0.5897 10.236055266143637 2.25946842272301 5.39655707594028 0 2 0
1282 0 1 -1.1794 6.845509793027276 3.0708921832317526 6.945900588846333 0 0 0
1284 0 2 0.5897 7.5432532451113765 2.476248441548795 6.682529511540807 0 0 0
1291 0 1 -1.1794 9.371552840928905 1.646065865795463 6.776901026563982 0 0 0
1292 0 2 0.5897 9.786828448242423 1.869175060984009 7.610536244145482 0 0 0
1293 0 2 0.5897 9.67568499247716 0.684011315948355 6.622018152570264 0 0 0
2018 0 2 0.5897 7.699224065844502 0.09073806726002977 8.201394204957188 1 0 -2
1882 0 1 -1.1794 5.946665651746396 4.092311591953221 4.543227318889101 0 0 0
990 0 2 0.5897 3.383772349230412 6.354130284150713 4.84919250975749 1 -1 1
1594 0 1 -1.1794 3.612888673484303 5.182282946358403 7.129791256152932 0 0 0
1595 0 2 0.5897 4.1931821886224 5.903546953659022 7.3927737228082115 0 0 0
1883 0 2 0.5897 5.368023501220149 4.790724134560417 4.819040407981291 0 0 0
2148 0 2 0.5897 1.1078331155821917 6.0866570877214015 5.267285866662887 0 0 -1
1596 0 2 0.5897 2.832318486288324 5.207296765860213 7.760845528254071 0 0 0
1354 0 1 -1.1794 4.413745508976776 8.008347133715946 7.86102883816481 0 1 1
2147 0 2 0.5897 1.3486832932317792 7.464463608849769 6.1388724360381275 0 0 -1
2146 0 1 -1.1794 1.2035239523678103 7.07791672637019 5.249091284549504 0 0 -1
1830 0 2 0.5897 5.538535844045906 7.048780022682685 6.8318359466345795 0 -2 0
1810 0 1 -1.1794 1.163216762163533 4.11997905971311 8.288704491910588 0 0 1
2089 0 1 -1.1794 0.660569156515591 4.358524102837783 5.549203245300425 0 1 -1
2090 0 2 0.5897 0.6462662167708118 4.292523696778133 6.529429383811999 0 1 -1
1884 0 2 0.5897 6.8434577783991 4.450680675469151 4.225294463803437 0 0 0
12 0 2 0.5897 8.151529099187442 4.553930337194054 7.4483786822434945 0 -1 0
1829 0 2 0.5897 6.785057432862765 7.538056839571706 5.91984911316297 0 -2 0
1828 0 1 -1.1794 6.335898856320569 6.734601253170217 6.266055042834454 0 -2 0
11 0 2 0.5897 7.610923826407505 5.832631838278679 6.906864739996492 0 -1 -1
10 0 1 -1.1794 8.38299001874976 5.462375819605855 7.442427696302798 0 -1 0
2135 0 2 0.5897 11.992044567550117 6.294245944293029 5.524531880890867 0 0 -1
1863 0 2 0.5897 9.795421427493977 7.862742530936292 6.847375776942039 0 -1 1
1094 0 2 0.5897 10.398061713361598 5.504304184880603 7.7549500959766595 0 0 1
1397 0 2 0.5897 3.006541037590333 9.53913292928473 5.127523466911167 0 0 -1
1396 0 1 -1.1794 3.556384930311011 9.588673697096265 5.945083521209551 0 0 -1
1344 0 2 0.5897 5.501574207612914 9.49753133809704 5.565674388085717 0 -1 0
1398 0 2 0.5897 3.33930822883234 10.491730856506106 6.249474788152566 0 0 -1
1355 0 2 0.5897 4.186661579102642 8.780869636870994 7.362718068971472 0 1 1
1865 0 2 0.5897 1.980765628671149 8.79257235022563 8.275566940415684 0 1 1
1864 0 1 -1.1794 1.1728422210533207 8.630471289517287 7.737540774223085 0 1 1
2033 0 2 0.5897 0.7189560984069503 11.362338012999787 5.575487145634919 0 -1 -1
2034 0 2 0.5897 0.48470559432238786 9.897651879671743 6.334282475254866 0 -1 -1
1861 0 1 -1.1794 9.671712782499812 8.760717709979463 7.151382840320497 0 -1 1
1888 0 1 -1.1794 11.783506996940357 11.041450404048957 4.755989562025552 0 -1 2
1987 0 1 -1.1794 9.629216690563942 9.620404628032457 4.448388994249306 1 0 1
761 0 2 0.5897 6.853094637852425 9.120459395334771 7.510941516230884 0 1 0
1862 0 2 0.5897 8.8924627169351 8.68463218008698 7.77988956677443 0 -1 1
1988 0 2 0.5897 10.386667115493658 10.21316020956887 4.488071694651 1 0 1
1342 0 1 -1.1794 6.4543050722829545 9.334629320035155 5.5617424281039956 0 -1 0
1343 0 2 0.5897 6.861308017274192 10.174264923300875 5.169496613743328 0 -1 0
1989 0 2 0.5897 9.416648937314866 9.449744767829277 5.363992478887657 1 0 1
371 0 2 0.5897 9.874053098406065 11.446983890888298 7.581915111653184 0 1 0
372 0 2 0.5897 10.840998536118477 11.528896925031571 6.391145474698562 0 1 0
637 0 1 -1.1794 7.343583305380016 11.836568261515765 5.6275052874545315 0 0 1
638 0 2 0.5897 8.28094912713072 11.958010474232271 5.789786167650937 0 0 1
370 0 1 -1.1794 10.092532212027946 12.008295708014693 6.872355665483823 0 1 0
314 0 2 0.5897 11.725134558296968 9.526580473688547 7.029603906001708 0 0 -1
16 0 1 -1.1794 0.8049842759800658 12.951453353060504 5.885098534721419 0 -1 -1
339 0 2 0.5897 0.9490266501924315 15.332690089857183 7.341664621123897 0 0 1
1572 0 2 0.5897 1.2029926042777261 12.110565545061561 7.832015618025459 0 0 0
2083 0 1 -1.1794 3.2461996680022085 12.21977520439936 6.922554885435706 0 -1 0
2084 0 2 0.5897 3.6546866059934877 12.695588469797581 6.164272680377423 0 -1 0
2085 0 2 0.5897 3.9975120888144935 12.268490894479475 7.548413852027691 0 -1 0
1297 0 1 -1.1794 5.895610514767817 12.038113864462742 7.963793165226088 0 -1 -1
1903 0 1 -1.1794 2.2907908392592278 14.916891839481476 4.677388116896952 0 -1 1
17 0 2 0.5897 1.163196075776066 13.760428713450183 5.455052967338755 0 -1 -1
59 0 2 0.5897 3.890842630410399 14.378297756661597 5.210640783156322 0 1 0
60 0 2 0.5897 4.895421694981478 13.274256085520816 4.714787719262473 0 1 0
58 0 1 -1.1794 4.801326228532011 14.054237743721012 5.28601357364869 0 1 0
132 0 2 0.5897 5.062976590545364 13.768114337247404 8.290252067267549 0 0 0
1905 0 2 0.5897 2.2009311672405207 15.873052111463377 4.917049294466544 0 -1 1
1331 0 2 0.5897 4.279838099957247 16.002563048127477 6.9378103381017855 0 -1 -1
2267 0 2 0.5897 9.442295360847389 14.16180131828256 4.414778958256394 1 -1 1
1298 0 2 0.5897 6.517490553479041 12.081790124939843 7.236728437002147 0 -1 -1
89 0 2 0.5897 6.470836731523093 14.529489092978652 5.700277548265571 0 -1 0
639 0 2 0.5897 7.265997749769539 12.361893985614245 4.830542911652301 0 0 1
90 0 2 0.5897 7.76007614288079 15.263458026823704 5.425345839535174 0 -1 0
88 0 1 -1.1794 7.279056962257783 14.886724242662938 6.1559540436577285 0 -1 0
3 0 2 0.5897 10.75967086957936 13.588427337413822 7.4222486349798595 0 -2 0
1 0 1 -1.1794 11.05755541476821 14.464350732713106 7.325848483895362 0 -2 0
261 0 2 0.5897 8.088550695409605 14.028332544149789 7.616749082706683 0 0 1
1122 0 2 0.5897 11.055858421686448 15.373893856219762 5.6096576080150395 0 1 1
1120 0 1 -1.1794 11.21746688839014 15.76825755722341 4.74120368517475 0 1 1
2 0 2 0.5897 10.467644102923071 15.122700612881024 7.804553876285368 0 -2 0
41 0 2 0.5897 5.2328845228859215 19.7966296862676 7.064434215553927 0 1 0
42 0 2 0.5897 4.053821010120153 19.320074852459747 7.94067083814108 0 1 0
874 0 1 -1.1794 1.9378273388435692 18.111699072361418 4.957225626640335 0 -1 1
1506 0 2 0.5897 5.012072613465952 16.72286116451125 4.68754194341283 1 0 0
40 0 1 -1.1794 4.876505498984002 19.045411300169167 7.574358202071239 0 1 0
1330 0 1 -1.1794 4.0576942324802765 16.710056921297156 6.313226784540419 0 -1 -1
875 0 2 0.5897 2.6801449835937894 17.70487017672383 5.494285787316132 0 0 1
876 0 2 0.5897 1.3638433820835314 18.5169704379592 5.613576581784243 0 -1 1
1332 0 2 0.5897 4.285504906418147 17.58342118778569 6.674153282052694 0 -1 -1
2025 0 2 0.5897 1.7609742665559887 17.394851326630786 8.112657673967824 0 1 -1
1121 0 2 0.5897 10.46829000901284 16.280009051024855 4.44844570970114 0 1 1
1599 0 2 0.5897 7.150728939821388 16.12732822451803 7.476191846210261 0 0 1
1807 0 1 -1.1794 8.564014935957653 16.90963328906659 4.30336206178431 0 -1 0
1809 0 2 0.5897 8.232783555587663 17.623141269061467 4.883772550918714 0 -1 0
839 0 2 0.5897 7.24278841967656 18.257933084895413 6.651371546347087 0 0 0
838 0 1 -1.1794 7.737354370818433 18.861464319694374 6.032360045562801 0 0 0
840 0 2 0.5897 7.2076863690100605 19.66046777637033 5.861962988360305 0 0 0
119 0 2 0.5897 10.417990186928579 18.780061167762465 5.782315906136962 0 -1 -1
1529 0 2 0.5897 10.363876647044565 17.242266742747915 7.982591334299366 0 -1 -1
118 0 1 -1.1794 10.586179614515634 18.737577314134004 6.711806900138966 0 -1 -1
120 0 2 0.5897 11.336590095656256 19.350518603239024 6.863707593188277 0 -1 -1
1598 0 2 0.5897 8.089624964979544 17.06844081140822 8.324248527634944 0 0 1
1597 0 1 -1.1794 7.195369755140624 17.027913451204185 7.911751879972717 0 0 1
1620 0 2 0.5897 2.313001214015079 0.9057611186766489 8.588197941025383 0 1 1
330 0 2 0.5897 2.536564986184304 0.8134784163464699 11.636026986338859 0 0 0
328 0 1 -1.1794 3.0492012846324945 0.8311001110041831 10.816353050755614 0 0 0
329 0 2 0.5897 3.14426362041192 1.727819066947164 10.574726322808198 0 0 0
1350 0 2 0.5897 5.683140910800995 2.5662627694540654 10.85853664269033 0 0 -1
817 0 1 -1.1794 3.154665464479218 3.4530358713760907 10.20397608099509 0 1 -2
2016 0 2 0.5897 4.509101801677406 2.6109477055532375 8.998772159130134 1 0 -1
2014 0 1 -1.1794 5.3840622239426725 2.1838293234145167 8.963752872339807 1 0 -1
819 0 2 0.5897 2.6574307540083817 3.945289840012877 9.541310150957813 0 1 -2
1348 0 1 -1.1794 5.8015942402092335 2.5409792835861067 11.798864386557728 0 0 -1
1811 0 2 0.5897 0.9504167977334883 3.195310771522337 8.407712832959524 0 0 1
1104 0 2 0.5897 10.004427916389456 3.4443700579891727 10.217670860910562 0 1 0
496 0 1 -1.1794 9.86521971318275 1.7388625108163787 9.478607019452385 1 1 -1
498 0 2 0.5897 10.48576104589651 1.0979426189825658 9.818276283027561 1 1 -1
497 0 2 0.5897 9.026247157115876 1.2438119032861734 9.490244953548613 1 1 -1
2019 0 2 0.5897 6.527799903009263 0.7481899943740983 9.023591203957341 0 0 -2
2017 0 1 -1.1794 7.3268255833288 0.15100989359835165 9.085540355224008 0 0 -2
1349 0 2 0.5897 6.355430360418517 3.328773767287503 11.950172741019568 0 0 -1
818 0 2 0.5897 3.8346725285922467 4.120715348671856 10.53116635613702 0 1 -2
887 0 2 0.5897 1.9263706548117536 6.511314843765389 11.235289725413228 0 -1 0
888 0 2 0.5897 2.208906812951155 7.555003421008031 10.184020020025825 0 -1 0
886 0 1 -1.1794 2.186440857095135 6.586523573130684 10.320639257048148 0 -1 0
768 0 2 0.5897 3.9924264529446414 6.257893364984866 10.602254738315178 0 2 1
766 0 1 -1.1794 4.8087693019366125 5.688833496955273 10.588596382684457 0 2 1
767 0 2 0.5897 5.061684042746154 5.817151308521349 11.51351631136218 0 2 1
1812 0 2 0.5897 0.5477644267179987 4.6533101210456795 8.836166004744436 0 0 1
1103 0 2 0.5897 10.607434020428775 4.431375931889797 11.319129954118278 0 1 0
1102 0 1 -1.1794 9.919575335722499 4.3220264818959935 10.641112461959239 0 1 0
1587 0 2 0.5897 6.5449574596466045 6.222128079460852 10.022635672702489 0 -1 1
1095 0 2 0.5897 10.711780646622431 5.484458184955418 9.287303071432886 0 0 1
1093 0 1 -1.1794 11.077524882048536 5.681546720298958 8.423896989987357 0 0 1
1586 0 2 0.5897 7.7857732403380755 6.061777470496217 9.019662294350672 0 -1 1
1585 0 1 -1.1794 7.395224488358684 6.626117223637026 9.760281484091516 0 -1 1
392 0 2 0.5897 8.437529945511479 7.18062568202353 11.20248476540246 0 2 -2
391 0 1 -1.1794 8.932814377774612 7.599765228307128 11.8930369966602 0 2 -2
1013 0 2 0.5897 8.273138682649524 4.848104391831148 11.952219866435412 1 0 1
306 0 2 0.5897 10.49634614021183 7.8554008418523935 11.131666303373128 0 -2 -1
304 0 1 -1.1794 11.43489718085129 7.944842849835552 10.92723920020215 0 -2 -1
305 0 2 0.5897 11.97927247125297 7.586744130245791 11.631851388899994 0 -2 -1
1866 0 2 0.5897 0.48269125438123184 8.527400842269795 8.38283500010879 0 1 1
1356 0 2 0.5897 4.631101826022192 8.390242489397524 8.71097092510068 0 1 1
1079 0 2 0.5897 4.6737058719755336 8.738673499828208 11.115400488759535 0 0 -1
1064 0 2 0.5897 2.861399876250853 10.469120135377173 10.474784093008628 0 0 0
1063 0 1 -1.1794 2.0327024384368464 10.002432347272585 10.164831916658214 0 0 0
1065 0 2 0.5897 1.7104458966534113 10.712488597898226 9.633256583840641 0 0 0
1078 0 1 -1.1794 5.100433392499998 9.125692765985345 10.364078990027293 0 0 -1
1080 0 2 0.5897 5.570956349689204 9.943846629599326 10.651913110234476 0 0 -1
2031 0 2 0.5897 1.4041431223382217 9.490553253223215 11.810430846038084 0 2 0
1570 0 1 -1.1794 1.0031436970561685 11.96712785674362 8.770563820370732 0 0 0
1299 0 2 0.5897 6.125591878229232 11.399962134184028 8.615455641366141 0 -1 -1
762 0 2 0.5897 6.857243053219343 8.36166323780255 8.861142375358906 0 1 0
760 0 1 -1.1794 7.214916034929312 9.179739181487392 8.428327133796879 0 1 0
2053 0 1 -1.1794 6.82759499671792 11.338977871126342 11.129669631488744 0 -1 1
99 0 2 0.5897 8.493496856651888 10.307364117814416 9.080720381094347 0 1 0
98 0 2 0.5897 9.928243298789747 10.686136865217124 9.64736298709165 0 1 0
97 0 1 -1.1794 9.09932285525457 11.073852240520866 9.332510504461318 0 1 0
2054 0 2 0.5897 7.654120751247426 11.4329576247514 10.598186550790798 0 -1 1
1124 0 2 0.5897 11.565097780986434 9.466411213913076 10.612333232163474 0 2 1
1123 0 1 -1.1794 11.670226962118356 10.401485020778447 10.223859128123525 0 2 1
1125 0 2 0.5897 12.073180867023963 10.945434557301422 10.923305518381932 0 2 1
315 0 2 0.5897 12.001328488003722 10.099381175521152 8.401445796383081 0 0 -1
130 0 1 -1.1794 4.510703432594255 14.460665780690393 8.591652094241875 0 0 0
504 0 2 0.5897 1.1249001899128896 14.644296648821854 12.422043546854649 1 1 0
1563 0 2 0.5897 1.611310637076712 13.62991345060324 9.28349794585441 0 -1 -1
1561 0 1 -1.1794 1.8615161523513766 14.538712671467847 9.193129381218643 0 -1 -1
1562 0 2 0.5897 2.7794548384795394 14.489092479165052 9.067363061922423 0 -1 -1
1338 0 2 0.5897 3.9453970079944582 12.697353702607122 10.513304386166453 0 1 -2
131 0 2 0.5897 4.934023932714772 14.788461802721883 9.38025853253374 0 0 0
503 0 2 0.5897 1.7729324360306458 13.51216887269811 11.611843723018143 1 1 0
1336 0 1 -1.1794 3.4250435720559933 12.320205935544497 11.186767594262536 0 1 -2
1337 0 2 0.5897 3.886182025323836 12.33129386162481 12.030305819160583 0 1 -2
32 0 2 0.5897 5.981313148166628 14.73269353775725 11.377106640916708 0 0 -1
31 0 1 -1.1794 5.850001657642212 13.935311118671489 11.930338273820045 0 0 -1
502 0 1 -1.1794 0.9715650195130164 13.694682993001948 12.189949645860727 1 1 0
260 0 2 0.5897 8.606430097037991 12.809877409804272 8.449615138576055 0 0 1
2055 0 2 0.5897 6.718195159378269 12.176973028597017 11.52757547799956 0 -1 0
2100 0 2 0.5897 8.954683840034424 14.223568597057152 10.13490705157632 0 0 0
259 0 1 -1.1794 8.335298052570636 13.755044468959673 8.477599603186592 0 0 1
2098 0 1 -1.1794 9.229597510971683 14.292336306794338 11.089776794520764 0 0 0
2099 0 2 0.5897 9.884810194338407 15.045621909073615 11.085067407423708 0 0 0
1638 0 2 0.5897 7.874603196220672 15.936824334943987 11.770096182689988 0 -1 -1
1275 0 2 0.5897 9.107073476164361 13.252175481330314 12.385674266665642 0 -1 0
595 0 1 -1.1794 0.616061029127248 19.754247805469596 12.485793222190345 0 1 -1
2023 0 1 -1.1794 2.1555599436572113 18.25318042697129 8.478367258701164 0 1 -1
1025 0 2 0.5897 4.848841502335584 19.683394539752815 10.956718767636069 0 -2 0
64 0 1 -1.1794 6.068173556978819 16.18461803112791 10.149985415800867 0 1 -1
65 0 2 0.5897 5.639202846485307 16.96114759415114 10.575298157092416 0 1 -1
1024 0 1 -1.1794 5.3269693836241006 18.87994465282069 10.682652336959244 0 -2 0
1026 0 2 0.5897 5.625177568852292 18.981937684595323 9.796456690888263 0 -2 0
2024 0 2 0.5897 2.503778241844035 18.002621611968408 9.354473781847627 0 1 -1
1252 0 1 -1.1794 2.5262903290309877 17.875263433163983 11.251417998511819 1 0 0
1254 0 2 0.5897 2.2578762103246204 17.156072224753242 11.86454861225483 1 0 0
596 0 2 0.5897 1.1379664709721866 19.313010752246107 11.826125315685854 0 1 -2
1253 0 2 0.5897 3.4205713343274655 18.20985194327243 11.25094997722505 1 0 0
66 0 2 0.5897 6.395735892425604 16.427716401376532 9.267050443805786 0 1 -1
1770 0 2 0.5897 11.382489185206067 18.930351702449244 10.163243608795096 0 -1 1
1769 0 2 0.5897 10.255411668238558 19.225677040611284 11.258830037671263 0 -1 1
1528 0 1 -1.1794 9.913088257346532 16.63544778139144 8.589237520671109 0 -1 -1
1768 0 1 -1.1794 11.030560800500542 19.624992381590612 10.775734816296243 0 -1 1
45 0 2 0.5897 11.106264344912592 16.87405317944015 11.747507861163625 0 0 0
36 0 2 0.5897 7.722525023175476 19.187450267884877 10.604493359693048 0 -1 -1
1530 0 2 0.5897 10.416682520327553 16.5909987873617 9.38880579584652 0 -1 -1
34 0 1 -1.1794 8.338853935158792 18.963001577285354 11.348201777034374 0 -1 -1
35 0 2 0.5897 8.215507267043236 18.001449822599948 11.583740722149177 0 -1 -1
43 0 1 -1.1794 11.130495965857047 16.354968212050483 10.946583939757863 0 0 0
44 0 2 0.5897 12.034199684981953 16.05155573616158 10.84400613647768 0 0 0
1636 0 1 -1.1794 7.774276987550517 16.607443335258967 12.466126659946866 0 -1 -1
1542 0 2 0.5897 0.8170804544999118 1.4929624747637327 12.91822314017118 0 1 0
344 0 2 0.5897 3.0187046367588866 3.1518001631206585 12.935553526196935 0 -2 -4
345 0 2 0.5897 4.487196929048452 2.8178175514940813 13.19988120612064 0 -2 -4
343 0 1 -1.1794 3.710175647337892 3.2627137245277216 13.627013105590025 0 -2 -4
527 0 2 0.5897 5.375740061285066 1.4504336775383446 15.16020809698589 0 2 -2
1544 0 2 0.5897 2.293855079739459 0.8296775303101046 15.606721663993847 0 1 -1
1543 0 1 -1.1794 2.0172762429354485 1.4989495680686524 16.19954332963956 0 1 -1
526 0 1 -1.1794 4.768571672481675 0.7809991777699413 15.531081499561532 0 2 -2
1540 0 1 -1.1794 0.8301950861049787 2.4772789359144287 13.053732977438425 0 1 0
528 0 2 0.5897 5.156985638401341 0.4646006597133889 16.388964657957583 0 2 -2
1090 0 1 -1.1794 6.273835738468077 3.16766239635117 14.942953080772899 0 -1 -1
1764 0 2 0.5897 1.2585733367583785 3.741290674707592 14.436752502317026 1 0 0
383 0 2 0.5897 4.048220990166273 3.6580550186891823 15.656023849985635 0 1 -3
382 0 1 -1.1794 3.7312282862321786 3.9109967584959273 16.53212020588313 0 1 -3
1545 0 2 0.5897 2.7163386649364947 2.1081943117206 16.31782313149336 0 1 -1
1091 0 2 0.5897 6.956819365131178 3.03471002062655 14.283406713162217 0 -1 -1
1610 0 2 0.5897 6.7945581588438415 0.9886744069140133 12.63151411538899 0 3 -1
1011 0 2 0.5897 9.548305952900662 3.0906885475232824 13.599989566586588 0 0 -1
1010 0 2 0.5897 8.843115610599334 1.7184176200300818 13.494230827554984 0 0 -1
1009 0 1 -1.1794 9.419077768326135 2.3017627315889806 14.123578662007672 0 0 -1
80 0 2 0.5897 10.944129425617538 1.098473864361127 14.384655006194201 0 4 -2
1074 0 2 0.5897 8.756900131244533 2.147508598313008 16.177154835025384 0 0 0
1609 0 1 -1.1794 7.486424854630633 0.5402188602186798 13.113548172267642 0 3 -1
1092 0 2 0.5897 6.685959862755219 2.99678250692755 15.783019274490755 0 -1 -1
79 0 1 -1.1794 11.712677025841328 0.5069593916018849 14.615960026721988 0 4 -2
50 0 2 0.5897 1.1802064717023653 7.328861228830726 13.336810348997039 0 1 0
560 0 2 0.5897 4.545456007290217 4.991241479408513 13.572599863822795 0 1 -1
561 0 2 0.5897 4.889861449884235 6.562093781009384 13.896404748610836 0 1 -1
559 0 1 -1.1794 5.2159637379716575 5.701573325766278 13.495509418263943 0 1 -1
1762 0 1 -1.1794 1.1860067847793567 4.341123672824935 15.146428008114611 1 0 0
1763 0 2 0.5897 2.014666396604379 4.302722166694893 15.604683304761785 1 0 0
51 0 2 0.5897 1.4055303032263877 5.775302811894526 13.652303685728667 0 1 0
1795 0 1 -1.1794 5.781532549123473 7.938959842365899 15.109498606165877 0 -1 2
384 0 2 0.5897 3.8086101429372308 4.893619548584596 16.53162744112991 0 1 -3
49 0 1 -1.1794 1.225266185439776 6.427271862622437 13.007050213325044 0 1 0
1796 0 2 0.5897 6.538749941145396 7.410740010338834 15.438294059627218 0 -1 2
1012 0 1 -1.1794 7.642057000358035 4.57065858898251 12.685910948985837 0 0 1