LAMMPS data file via write_data, version 23 Jun 2022, timestep = 0

2268 atoms
2 atom types

0.5397269632988753 46.91097203669405 xlo xhi
0 20.047001 ylo yhi
0 20.857 zlo zhi

Masses

1 1.008
2 15.999

Atoms # full

342 0 2 0.5897 3.2413002153951167 2.138118246738425 2.899339814795947 0 0 1
19 0 1 -1.1794 2.3096145590031156 1.034584696493415 1.521547257264029 0 0 0
20 0 2 0.5897 2.3290622017614524 1.4433067570049456 0.6684803118234268 0 0 0
340 0 1 -1.1794 3.474962194505972 2.742018170885662 3.627243460224219 0 0 1
839 0 2 0.5897 0.9317107473786305 1.2460114747789737 2.5044761467821495 0 1 0
21 0 2 0.5897 2.5617357371106255 0.10454595716327428 1.3776392809352032 1 0 0
341 0 2 0.5897 4.222027866449368 2.2218294290737877 4.032489440841607 0 0 1
2240 0 2 0.5897 5.594870333544579 2.592582689284901 0.5976724216045476 1 1 1
2239 0 1 -1.1794 5.902144689693429 1.6649589925207073 0.5073038691222422 1 1 1
87 0 2 0.5897 4.796324689929631 0.43547233319467427 0.1280508589550083 0 0 0
233 0 2 0.5897 0.6561272851306799 3.2724924502761885 3.3501657172052632 1 0 0
838 0 1 -1.1794 0.5496361658979652 1.4620839680939406 3.378836879043274 0 1 0
2241 0 2 0.5897 6.523379988078438 1.5815031080246051 1.259752741436244 1 1 1
636 0 2 0.5897 8.05053841641743 1.408957040454915 4.116404598236321 0 0 -1
634 0 1 -1.1794 7.465122165303391 1.956641056482053 3.557022616479642 0 0 -1
635 0 2 0.5897 7.289021545175714 2.808158283195726 3.9765365776734822 0 0 0
1294 0 1 -1.1794 10.747433906740694 2.5362912283108314 3.6887643723405357 0 0 0
336 0 2 0.5897 9.667915878798091 1.6559825339399634 0.9897971690939471 0 0 1
1296 0 2 0.5897 9.987494003056906 2.301820125147052 3.204856613174867 0 0 0
334 0 1 -1.1794 9.79877178762777 1.0061876944146149 1.752929195312192 0 0 1
587 0 2 0.5897 9.758080305267196 3.659434653038704 0.014052134898722812 0 0 0
335 0 2 0.5897 10.645233439742254 0.5543514164164304 1.584092818964853 0 0 1
1777 0 1 -1.1794 5.328136939539167 4.2482749568490235 0.8715751873238583 0 0 0
1779 0 2 0.5897 4.48331798974017 4.508779754862495 1.2963569386332658 0 0 0
1563 0 2 0.5897 2.2704423564968197 4.641577162026162 2.3994091076259063 0 0 0
1561 0 1 -1.1794 3.0338102986256668 5.095422780316438 1.9672567455318788 0 0 0
1562 0 2 0.5897 2.7780181989176174 6.0061599753170825 1.7270804381316027 0 0 0
1094 0 2 0.5897 5.281998814679996 6.05011474807555 3.5409024163707454 0 0 1
1095 0 2 0.5897 4.382937482576952 4.9177552538059786 3.902836629018943 0 0 1
1778 0 2 0.5897 5.862453735146915 4.965294429238464 1.222804038004013 0 0 0
46 0 1 -1.1794 2.554602766563065 7.82551925252376 1.3533400119946986 0 0 -1
48 0 2 0.5897 1.7624837537632243 7.999222717410923 1.865598581145377 0 0 -1
566 0 2 0.5897 6.220533088967278 7.393643361059577 1.2886389847479063 0 0 1
565 0 1 -1.1794 6.191475837543818 6.645459877165847 1.9499368826358783 0 0 1
1107 0 2 0.5897 0.7892413188561548 7.441040113488851 3.8272015221282367 0 0 0
232 0 1 -1.1794 0.7048889174031198 4.260369651533475 3.1992634774880866 1 0 0
1517 0 2 0.5897 8.326477223373143 4.514571041925868 3.182386160089132 0 -1 0
1765 0 1 -1.1794 10.647479489441338 4.9570005775937105 0.8649520684972138 0 -1 1
1516 0 1 -1.1794 8.598346081343346 5.309914298628344 2.731351377377251 0 -1 0
567 0 2 0.5897 7.0756940572442435 6.316413322923508 2.086297202929918 0 0 0
1518 0 2 0.5897 9.351269682716055 5.132415742709188 2.193420751071366 0 -1 1
281 0 2 0.5897 10.0535459133797 7.612543446468828 2.24680341679881 0 -1 1
1767 0 2 0.5897 11.106728238478805 5.636467602899456 0.2934473592220918 0 -1 1
280 0 1 -1.1794 10.544754257540433 7.76961355689828 3.066707762789616 0 -1 1
282 0 2 0.5897 9.977957277223327 7.375505622183085 3.791393554513339 0 -1 2
1344 0 2 0.5897 8.81211515621708 7.105602321210173 0.1287598378607704 0 0 0
1342 0 1 -1.1794 9.22327125849418 7.789880694652979 0.6336255614976659 0 0 0
1766 0 2 0.5897 11.451613326442638 4.528141616109762 1.2622341529141468 0 -1 1
47 0 2 0.5897 2.6361165399274378 8.578921890880599 0.7118412121192457 0 0 -1
33 0 2 0.5897 4.131770938781359 8.557494970289811 2.3745178309814374 0 0 1
31 0 1 -1.1794 4.593536030209388 8.901292542129182 3.1519912827487753 0 0 0
1989 0 2 0.5897 1.8642158468187306 10.766066506714553 3.1291161882334966 1 0 1
32 0 2 0.5897 4.483615403172509 9.885803491013583 3.2404150949130246 0 0 0
1274 0 2 0.5897 2.6082366806344175 11.22503413999122 0.8294256762519612 0 0 1
811 0 1 -1.1794 4.750846398408562 11.658037567482417 3.4934939247532277 0 -1 1
1273 0 1 -1.1794 2.721399987550424 11.748016637702763 1.6883252248546765 0 0 1
1275 0 2 0.5897 3.651880902825238 11.693723834943953 2.1025370346414034 0 0 1
1804 0 1 -1.1794 5.434526434090152 11.01133296614029 0.6981917406637086 0 -2 0
1988 0 2 0.5897 1.0544929212416636 9.658033940621607 3.7817014240298947 1 0 1
1987 0 1 -1.1794 1.260967120760454 10.624086517773629 3.8530221692661377 1 0 1
1806 0 2 0.5897 5.019990650050751 10.448291036683674 0.029427854529263796 0 -2 0
1805 0 2 0.5897 5.105471118782979 11.89976072798919 0.514849965043195 0 -2 0
1105 0 1 -1.1794 0.562304641831467 8.118403776620218 3.159416856070192 0 0 0
2028 0 2 0.5897 6.3585649959270585 8.836638403916092 3.3810880409723874 0 -1 1
2111 0 2 0.5897 7.197305681097111 10.666128294865286 0.9873022076186931 0 0 -1
1343 0 2 0.5897 8.491891996310697 8.394554281956342 0.6399599737759699 0 0 0
1134 0 2 0.5897 11.429126281295167 10.19985327991845 1.3549845880235516 0 0 0
1036 0 1 -1.1794 10.550611134515822 11.031832053896725 3.2046367037840455 0 0 0
2112 0 2 0.5897 8.14469122271951 10.198468121517552 2.115911489804941 0 0 -1
2110 0 1 -1.1794 8.11879486222983 10.463357450074758 1.2069967148226264 0 0 -1
1037 0 2 0.5897 10.005536135961599 11.527577922643683 3.8037163435721713 0 0 0
1038 0 2 0.5897 10.37262963315505 10.082974308003763 3.3258693522193155 0 0 0
2026 0 1 -1.1794 7.289004111749912 9.05161560921222 3.5059680780678195 0 -1 1
1133 0 2 0.5897 11.035510672568645 9.115157077694327 0.4780068709552528 0 0 0
1132 0 1 -1.1794 11.787893578346912 9.621044129654024 0.713481213809987 0 0 0
2027 0 2 0.5897 7.602807981408553 8.325581570879384 4.083612486430059 0 -1 1
813 0 2 0.5897 5.602495368204622 12.098994582242256 3.431055993925948 0 -1 1
481 0 1 -1.1794 0.8825468235201236 14.723668829132476 3.8103685774023517 1 0 0
1793 0 2 0.5897 2.5146070209366083 13.681200038413788 1.6103669940793042 0 -1 1
1792 0 1 -1.1794 2.6779343914035425 14.640185417466729 1.7115023820932302 0 -1 1
1794 0 2 0.5897 2.51493556355456 15.056721357326746 0.8531200447394254 0 -1 1
483 0 2 0.5897 1.2895777791320002 14.780431325689808 2.9309284270615024 1 0 0
357 0 2 0.5897 4.515973020768206 14.907284553891802 3.654368749040126 0 -1 0
1359 0 2 0.5897 4.5595481845158705 15.016804587220598 1.6975943829050983 0 -1 0
1357 0 1 -1.1794 5.127076911032446 15.60473375906152 2.20975784554231 0 -1 0
2135 0 2 0.5897 6.383327625631605 14.08885719626151 2.710310340485964 0 0 0
2134 0 1 -1.1794 6.74451582716068 13.190499477473852 2.6989452211263725 0 0 0
1601 0 2 0.5897 10.53475810670175 12.672354428951484 0.049519254641201486 0 -1 1
1600 0 1 -1.1794 11.250303414185021 12.882440141248136 0.655472075548567 0 -1 1
2136 0 2 0.5897 7.14815572816137 13.067963301152579 1.8191223988828402 0 0 0
1602 0 2 0.5897 10.892537695150931 12.678504286504484 1.5243577185267778 0 -1 1
327 0 2 0.5897 9.361232367961806 14.473085627775031 3.137254579023416 0 0 -1
2156 0 2 0.5897 11.242862176977699 13.589220339259699 3.782283730656326 0 0 0
325 0 1 -1.1794 9.377138765736637 13.588907585945254 3.490438545083491 0 0 -1
1077 0 2 0.5897 8.449008858091466 15.5675097511043 1.163332638910579 0 -1 0
102 0 2 0.5897 11.542858501389087 15.025618977670485 0.7940518881424768 0 0 1
326 0 2 0.5897 8.479240009156197 13.289725560866227 3.4424909638691266 0 0 -1
802 0 1 -1.1794 7.656624666593173 14.022736046216014 0.19370587379355322 0 0 1
1075 0 1 -1.1794 8.727244001408009 16.036799213264143 1.9328577476053865 0 -1 0
2019 0 2 0.5897 7.356397911753819 15.87258205699496 3.894886447131988 0 -1 -1
100 0 1 -1.1794 11.69315496551154 15.657542705972215 0.06687480431692171 0 0 1
2084 0 2 0.5897 4.901325065906003 19.941753489058556 3.9561461940210205 0 -1 1
1358 0 2 0.5897 5.47372673953151 16.239993060301465 1.5682143015878047 0 -1 0
642 0 2 0.5897 4.438761414332211 18.232667227057064 2.343566693071247 0 0 0
846 0 2 0.5897 2.082979154784852 18.057775152455875 2.0296613053313695 0 -1 -1
844 0 1 -1.1794 2.855408285479275 18.18249876812004 1.4566412534736828 0 -1 -1
640 0 1 -1.1794 5.145898114499627 18.59887766510406 2.931526241437481 0 0 0
845 0 2 0.5897 2.7189857112820475 17.615436484598444 0.6405106276859914 0 -1 -1
2082 0 2 0.5897 0.8066353104163422 16.75704535572222 3.695700217586242 0 0 1
2080 0 1 -1.1794 0.8428704960587536 17.70943271385792 3.508366182819843 0 0 1
641 0 2 0.5897 5.092624273914119 18.019192100202986 3.6776278817981476 0 0 0
1072 0 1 -1.1794 6.04795725526708 17.38655242580986 0.16105909768996646 0 -1 1
523 0 1 -1.1794 11.9415342231603 18.997962863017158 0.7629200315529041 0 -1 1
1076 0 2 0.5897 8.339405633067802 16.868701120190053 1.861917765720048 0 -1 0
344 0 2 0.5897 7.074735239801005 19.022661419350182 2.2111029996691665 0 -1 -1
343 0 1 -1.1794 7.832794002064558 18.799900007336312 1.6355430575240035 0 -1 -1
525 0 2 0.5897 11.647465031204346 18.36370804631195 1.480321020080473 0 -1 1
345 0 2 0.5897 8.535914319789349 19.489613857453623 1.7175263404893708 0 -1 -1
301 0 1 -1.1794 10.975335427305074 17.83167001924611 3.2421130488666887 0 -1 0
302 0 2 0.5897 10.249374604378241 17.22013766169485 3.0801507139830897 0 -1 0
303 0 2 0.5897 11.770580740122018 17.164622151882465 3.27603861581482 0 -1 0
1074 0 2 0.5897 6.9075117831261545 17.803189323340373 0.2071746431947631 0 -1 1
524 0 2 0.5897 11.359796650123025 18.771737418972112 0.004766371126809332 0 -1 1
2085 0 2 0.5897 5.995491264987522 1.016212836859184 4.184578465437933 0 0 1
2083 0 1 -1.1794 5.109290340508789 0.74231699823715 4.509396395341517 0 0 1
551 0 2 0.5897 2.461838753109629 2.9295815584662743 5.003427320678677 0 1 0
552 0 2 0.5897 1.3950130493772015 3.0180360844670617 6.182560783548994 0 0 0
2113 0 1 -1.1794 6.129618612629404 0.768455011173273 7.300525165349559 0 0 0
550 0 1 -1.1794 2.3863612948361297 3.0914950596264164 5.976294184117217 0 0 0
2115 0 2 0.5897 5.974304740609825 1.666610622484751 7.660856250566394 0 0 0
576 0 2 0.5897 2.733351626321301 1.9318588509883676 7.415270788546502 0 0 0
2114 0 2 0.5897 6.064055768464096 0.8879989576376901 6.339062968755639 0 0 0
273 0 2 0.5897 1.3781650506882386 0.361488310840439 4.814484630201182 0 1 0
574 0 1 -1.1794 2.666111197220525 1.5880260076499155 8.330064415550783 0 0 0
575 0 2 0.5897 2.3594831634874103 0.6948870755242068 8.278689070146742 0 0 0
1295 0 2 0.5897 10.458142126092952 3.274924340840016 4.278462271175079 0 0 0
2096 0 2 0.5897 10.953064119324507 0.813085287921855 4.565936851549516 0 0 1
1858 0 1 -1.1794 10.520318914586314 2.293273114537364 7.21981921572804 0 0 0
1860 0 2 0.5897 10.848769288338186 2.8877892672844023 6.511746077720383 0 0 0
1859 0 2 0.5897 9.941433273954301 2.837724685846543 7.7611425892494195 0 0 0
1300 0 1 -1.1794 8.745873972590365 0.5817604735017499 5.372901298408374 0 1 0
1302 0 2 0.5897 9.259900564683035 1.014434501317726 6.0789887758023395 0 1 0
2095 0 1 -1.1794 11.568479602668587 0.09695387902470463 4.808029630215538 0 0 1
1093 0 1 -1.1794 5.024205358818054 5.510368819619986 4.3010064728131265 0 0 1
1266 0 2 0.5897 3.732766874750061 4.469070171523754 6.628739963492776 0 -1 1
2057 0 2 0.5897 0.7931494114535564 5.356455556599333 4.62080987925085 0 0 0
1265 0 2 0.5897 4.763869764857941 5.6569911839065234 6.8982084716667655 0 -1 1
1264 0 1 -1.1794 4.251414614730814 4.9221207992700275 7.26922375709097 0 -1 1
2056 0 1 -1.1794 1.0679227313204995 6.191429785076443 5.066930249640027 0 0 0
794 0 2 0.5897 2.7673452338581015 7.20835143100963 5.164160244872222 0 0 0
1052 0 2 0.5897 5.035890907292816 7.64645893597357 5.962351200883475 0 0 1
1051 0 1 -1.1794 5.813224667148539 7.680140553467959 6.557909253283796 0 0 1
2058 0 2 0.5897 0.6808170340607074 6.149297122315615 5.994483776063073 0 0 0
1136 0 2 0.5897 6.286134105090871 4.611893179876298 4.544745031108424 0 0 0
793 0 1 -1.1794 3.419861996190821 7.920857080785136 5.3673205183769594 0 0 0
2066 0 2 0.5897 5.649662537014167 7.435926686376257 8.178153839755863 0 1 -1
1624 0 1 -1.1794 10.391335169934775 4.728768844951891 5.228587500607284 0 0 0
1625 0 2 0.5897 11.34177082199555 5.006116267366648 5.307287513422553 0 0 0
1053 0 2 0.5897 6.5723510144569595 7.320806475520733 6.113951974789027 0 0 1
1135 0 1 -1.1794 7.1179858226352195 4.171997774811397 4.812140508544808 0 0 0
1626 0 2 0.5897 9.874525010334084 4.888534957146424 6.01320460231936 0 0 0
5 0 2 0.5897 8.33102264652739 6.180885015299739 4.737387350015579 0 1 0
1137 0 2 0.5897 7.170194905904999 4.224688374308595 5.767520147087657 0 0 0
837 0 2 0.5897 7.207484389732666 4.035743664927086 8.095994998523116 0 0 0
835 0 1 -1.1794 7.928226697988783 4.3290309056503995 7.504580381589817 0 0 0
836 0 2 0.5897 8.348578205245254 5.156180473884838 7.87637539161534 0 0 0
600 0 2 0.5897 10.73077131005337 7.4117114862575 6.705001063510041 0 -1 0
598 0 1 -1.1794 10.022988526787017 7.042521827695818 7.20047729558673 0 -1 0
599 0 2 0.5897 10.453215306952105 6.3190028729961725 7.726677326471258 0 -1 0
6 0 2 0.5897 8.723491975650221 7.049906926834939 6.067517218103005 0 1 0
4 0 1 -1.1794 8.078549830006637 6.931480705168506 5.331747824537053 0 1 0
795 0 2 0.5897 3.8269157681203527 8.138525320562394 4.477158079258964 0 0 0
385 0 1 -1.1794 1.8735646916547732 9.488389785387845 7.413122451894554 0 0 0
387 0 2 0.5897 2.4619875660997037 9.26853390853135 6.6794999016041965 0 0 0
386 0 2 0.5897 2.4007211162566104 10.17436031754077 7.950954303954523 0 0 0
1100 0 2 0.5897 5.729580684386446 11.295142476333076 6.58871272286822 0 1 0
1101 0 2 0.5897 4.26350214786914 11.965451266182983 6.6985813957180245 0 1 0
812 0 2 0.5897 4.5627510772881905 11.636269868216532 4.431214750321998 1 -1 1
1099 0 1 -1.1794 5.034960547146456 11.83358964688593 6.143865236488221 0 1 0
1263 0 2 0.5897 6.056274269280891 9.26416631695649 7.273726940209884 0 0 1
69 0 2 0.5897 1.857927738491708 11.841118201994947 5.248318485222724 0 0 0
1057 0 1 -1.1794 11.902042339662929 10.860293540312112 6.572014585353473 0 0 -1
1261 0 1 -1.1794 6.351143394860703 10.077451624750955 7.698601042311034 0 0 0
1262 0 2 0.5897 7.347705663285285 10.034464572891938 7.6070291494779845 0 1 0
1027 0 1 -1.1794 9.179751862520378 9.787939677311277 7.540898156346136 0 0 0
1028 0 2 0.5897 8.997660749552415 8.89922967054875 7.945181551782813 0 0 0
1029 0 2 0.5897 9.786483783951423 10.299316024333242 8.062298883667163 1 0 0
540 0 2 0.5897 8.060686086952401 10.372755657310543 4.681343993669411 0 -1 1
538 0 1 -1.1794 8.628954423527313 11.088343922617765 5.133912637233346 0 -1 1
539 0 2 0.5897 8.87071730841625 10.647178630762733 5.9819893405004345 0 -1 1
2064 0 2 0.5897 11.823202418880296 8.166999730341825 4.557269033779791 0 0 -1
2062 0 1 -1.1794 11.842188296205759 8.240481865835285 5.5175910655832245 0 0 -1
2063 0 2 0.5897 11.724975863919285 9.225346543769378 5.660739604443412 0 0 -1
1058 0 2 0.5897 12.09128101928586 10.517921760540144 7.411892234028441 0 0 -1
356 0 2 0.5897 3.6915119134528314 13.80764821848366 4.29708013635855 0 -1 0
355 0 1 -1.1794 4.292919622701378 14.539717991085107 4.512930002207519 0 -1 0
68 0 2 0.5897 1.489560853548444 13.288689534216363 4.781634045577124 0 0 0
67 0 1 -1.1794 1.894209948697468 12.755660425357343 5.529055449825669 0 0 0
2120 0 2 0.5897 3.8075171834744035 14.210725547031654 6.566347903959207 0 0 0
2119 0 1 -1.1794 3.859858461834733 14.641467272524826 7.3818435770956645 0 0 0
1313 0 2 0.5897 2.6820669195542632 15.66988654467187 6.66058561277361 0 1 0
1314 0 2 0.5897 1.7235273099815858 15.633989710220591 5.404473743428026 0 1 0
2121 0 2 0.5897 3.5846736565975497 14.00743428869594 8.084509544708736 0 0 0
23 0 2 0.5897 5.616492113676745 15.698308236029646 8.038022399958635 0 -1 1
864 0 2 0.5897 6.440390775658903 13.172974200879697 5.569800282437296 0 0 1
862 0 1 -1.1794 7.3291225577249275 13.413022996244019 5.860574589789298 0 0 1
863 0 2 0.5897 7.84181901537407 12.67607785228287 5.401762075390488 0 0 1
2018 0 2 0.5897 7.5099268658154195 15.189656604559284 5.2442235839593145 1 -1 -1
315 0 2 0.5897 11.187887851551793 14.725825513377995 7.248432712391585 0 0 0
313 0 1 -1.1794 11.026498892744819 14.110971269137886 8.024816617039503 0 0 0
314 0 2 0.5897 10.149386368196536 13.695872779961858 7.959722256899373 0 0 0
1371 0 2 0.5897 7.954061404650308 13.130267642677682 7.445715126331312 0 0 0
639 0 2 0.5897 4.341034272715747 19.507668950845662 7.291452325104482 0 -1 0
1312 0 1 -1.1794 2.075758663727668 16.21943451219524 6.081735106201909 0 1 0
271 0 1 -1.1794 1.4765217587235326 19.748307456866954 5.5274011234526235 0 0 0
272 0 2 0.5897 2.3945148344679157 19.70665968150703 5.835941248447884 0 0 0
2045 0 2 0.5897 5.856344408615254 16.812720714143577 5.3342774537555995 0 -1 0
637 0 1 -1.1794 3.6314477438154555 18.944539503653296 6.983274478202795 0 -1 0
638 0 2 0.5897 4.143536529376446 18.234684396776647 6.497851804720359 0 -1 0
2046 0 2 0.5897 4.42385596927197 16.407250752910738 5.450124091639454 0 -1 0
2044 0 1 -1.1794 4.988164502391495 17.163184838434958 5.54630690037917 0 -1 0
2081 0 2 0.5897 1.1917393878478693 18.23232501800943 4.268997332230153 0 0 1
9 0 2 0.5897 2.5396737314997244 17.943968623413653 8.076937329918266 0 0 -1
2097 0 2 0.5897 11.255107289421275 19.365916560220207 4.257770910871641 0 -1 1
2017 0 1 -1.1794 7.495850682241008 16.081637331660033 4.824027085551432 0 -1 -1
532 0 1 -1.1794 11.254024690367464 16.57296116313528 6.323477233381349 0 0 1
533 0 2 0.5897 11.66972457155999 16.537273112255292 5.410881332904203 0 0 1
1301 0 2 0.5897 8.859946656383846 19.693457277906393 5.560806750948849 0 0 0
1620 0 2 0.5897 8.3183619755346 17.255758643193214 5.951938952249629 0 -1 0
534 0 2 0.5897 10.412188417882438 17.016734236959973 6.223421280834133 0 0 1
1618 0 1 -1.1794 8.86990390909213 17.992573189622938 6.307089526002138 0 -1 0
1542 0 2 0.5897 11.770811158961159 18.320283907012037 6.804207192850942 0 -1 0
1541 0 2 0.5897 11.670032085336441 19.719732767287493 6.428090234186378 0 -1 0
1619 0 2 0.5897 8.564052461070325 18.208343113142973 7.16989221313859 0 -1 0
1540 0 1 -1.1794 11.76080694262409 19.19424404574322 7.247991456151338 0 -1 0
1824 0 2 0.5897 7.230057470725493 19.716970041987253 8.174858439225273 0 -1 0
1590 0 2 0.5897 4.97482317842225 3.6183491115368507 8.368444782658248 0 0 1
1588 0 1 -1.1794 5.738764238424558 3.119134399882398 8.63083405896136 0 0 0
1785 0 2 0.5897 4.655865835902602 1.057616201168213 9.458298715756088 0 1 0
1783 0 1 -1.1794 4.619956942935454 0.7052458085546862 10.375282433526294 0 1 0
2147 0 2 0.5897 1.7344075217632615 2.445690302895149 9.591380759761131 0 1 0
2069 0 2 0.5897 4.372762122895222 2.022455231217236 11.310193257938174 0 -1 0
2068 0 1 -1.1794 4.24784590927664 2.8410512230081304 11.845242747208312 0 -1 0
2070 0 2 0.5897 3.27142019633386 2.9301842036013523 12.000502209362242 0 -1 0
2148 0 2 0.5897 1.2015334962573077 3.2329536840665942 10.848479418850049 0 1 0
2146 0 1 -1.1794 1.0868815050855831 3.130669191010166 9.893944657276114 0 1 0
1589 0 2 0.5897 5.84552083736198 3.110622214373543 9.605941639181479 0 0 0
1884 0 2 0.5897 7.2460298874036955 3.103528296902937 11.72063953280027 0 1 1
564 0 2 0.5897 9.79068735211867 1.9144296462544734 9.767019041831302 0 1 0
1883 0 2 0.5897 7.390344410055867 1.684810362018841 10.988892486316063 0 1 1
563 0 2 0.5897 8.803709619210712 3.0303748626290092 10.062485107406085 0 1 0
562 0 1 -1.1794 9.743535450963238 2.8376955962333175 10.055731735004164 0 1 0
1327 0 1 -1.1794 8.047722018321297 0.4847801734598363 12.28787837437649 0 0 0
1882 0 1 -1.1794 7.217870107952374 2.680486810344094 10.82110347906172 0 1 1
1103 0 2 0.5897 10.16280958528162 3.4187838926120295 11.99087680231575 0 1 1
1348 0 1 -1.1794 10.290129928595192 0.0664748866436801 9.491018350652654 0 1 0
1843 0 1 -1.1794 12.050822994609831 2.4714665008499126 11.808483222128226 0 0 0
2051 0 2 0.5897 2.8933048051923285 5.370649986404211 8.458021057378287 0 0 0
105 0 2 0.5897 4.6680492200694035 4.386817710364936 10.934092724873869 0 0 0
2050 0 1 -1.1794 2.4474922449869156 5.796375104911284 9.186657895288096 0 0 0
103 0 1 -1.1794 4.736595579179718 5.28311664481849 10.612342352195478 0 0 0
104 0 2 0.5897 3.9161789093523676 5.447869834466732 10.161682453377194 0 0 0
2052 0 2 0.5897 1.9030959877840457 5.071488244490272 9.513308856488557 0 0 0
789 0 2 0.5897 1.6513172751025122 7.364727479296299 9.679136604156746 0 0 0
2067 0 2 0.5897 5.428649540044762 6.4390748152281665 9.450714038644367 0 1 -1
1022 0 2 0.5897 4.901743306155484 6.168538330197918 12.504582915599734 0 1 -1
2065 0 1 -1.1794 5.828346082155225 7.268753715490859 9.13608631144557 0 1 -1
59 0 2 0.5897 11.79912705056558 6.057340315399012 12.269137052423837 0 0 0
558 0 2 0.5897 8.668295427103073 7.159407001584709 10.410802049446904 0 -1 -1
556 0 1 -1.1794 8.278758268325202 7.689364875973114 9.682902460955415 0 -1 -1
557 0 2 0.5897 7.288999004750013 7.480611479822425 9.588779703130355 0 -1 -1
505 0 1 -1.1794 8.326201094340739 6.3004882767067025 12.336964850470967 0 1 0
831 0 2 0.5897 11.333213121819297 7.908017319394292 10.922757069072697 0 0 0
53 0 2 0.5897 10.834591595319997 4.237301903959285 9.219992919915363 0 0 0
52 0 1 -1.1794 11.432999890905743 4.9838105296190545 8.943211109508777 0 0 0
830 0 2 0.5897 11.85824664843741 7.19912189713586 9.646755138144039 0 0 0
787 0 1 -1.1794 1.4310361788557406 8.24788475394131 9.928156198270639 0 0 0
323 0 2 0.5897 5.331689154739272 8.502189605007802 10.312070905207227 0 0 0
322 0 1 -1.1794 5.35785527487261 9.221769461130663 10.963373971393805 0 0 0
2124 0 2 0.5897 2.518242028828773 8.327020789631668 11.15407673645816 0 0 0
2122 0 1 -1.1794 2.9391301041218245 8.451865353444013 12.034877202201017 0 0 0
2123 0 2 0.5897 3.872610014173699 8.681358468993368 11.82618069614087 0 0 0
788 0 2 0.5897 1.5955967065587677 8.753073008664863 9.10025659126529 1 0 0
580 0 1 -1.1794 3.2039787069490133 11.599017555443178 8.396080926686427 0 -1 0
582 0 2 0.5897 3.963188824368741 11.518878601839482 8.982709942464577 0 -1 0
324 0 2 0.5897 5.586194106690502 10.006993211598974 10.461129306271513 0 0 0
51 0 2 0.5897 6.028533685798126 11.754244947337904 11.842699453389912 0 0 -1
581 0 2 0.5897 2.3892318467464944 11.994851700197266 8.868341336470534 0 -1 0
2029 0 1 -1.1794 5.889788881029843 11.751932432234309 9.903637126854813 0 1 0
1020 0 2 0.5897 7.863392770419217 9.024245749801732 11.378433341751162 0 0 1
1019 0 2 0.5897 7.3488391754394735 10.249028714568444 12.11662405822099 0 0 1
1018 0 1 -1.1794 8.155834908987075 9.86974960959679 11.75834442182336 0 0 1
1281 0 2 0.5897 9.208402968994761 10.653277061588668 10.479990264487478 0 1 0
1279 0 1 -1.1794 9.70458803439347 11.16001676193893 9.793919803542043 0 1 0
2030 0 2 0.5897 6.616216744557153 11.839193311353661 9.260873705827525 0 1 0
1280 0 2 0.5897 9.069186158733675 11.754440720193845 9.351876686641287 1 0 0
829 0 1 -1.1794 11.777712898593082 8.026372146437634 10.106594718948898 0 0 0
22 0 1 -1.1794 5.728601181023484 16.013865930313248 8.934009140206678 0 -1 1
300 0 2 0.5897 1.362951464232299 12.550935009923835 10.94194356967919 0 -1 0
2031 0 2 0.5897 5.4467648371453254 12.615768466296565 10.014721441153982 0 1 0
1820 0 2 0.5897 4.917540267619301 14.926238501729593 10.156021607143607 0 0 0
1821 0 2 0.5897 4.282006873914646 14.507510913158233 11.494209896720571 0 0 0
1819 0 1 -1.1794 4.42307201350365 14.23353554741234 10.538994407535842 0 0 0
298 0 1 -1.1794 1.1536238741572356 12.728443678808278 9.9980767269819 0 -1 1
1260 0 2 0.5897 0.7114395182562445 14.405054961982774 9.78359816266029 1 0 0
1258 0 1 -1.1794 0.8244275020012417 15.33080249029449 9.505438269971018 1 0 0
1551 0 2 0.5897 11.488731749205721 12.156623456457757 11.179016773823431 0 0 -1
24 0 2 0.5897 6.657518223767579 15.88575742590977 9.276508860368656 0 -1 1
1369 0 1 -1.1794 8.151217623224142 12.912287094581584 8.364907420740014 0 0 0
1370 0 2 0.5897 7.908730659088358 13.750982761942868 8.857246313071125 0 0 0
1827 0 2 0.5897 11.015428780319283 14.541643030205204 9.9813417727175 0 -1 1
1825 0 1 -1.1794 10.550837984225439 15.092993666426011 10.65596203700013 0 -1 1
1826 0 2 0.5897 11.062534007039233 15.03012672911448 11.46604482541845 0 -1 1
1645 0 1 -1.1794 7.819942007383297 15.010550801120736 10.352594541647445 0 0 -1
1646 0 2 0.5897 7.363586308645296 15.051109651149183 11.222256545611126 0 0 -1
1647 0 2 0.5897 8.838436793131981 15.096650800942262 10.508566323674794 0 0 -1
1549 0 1 -1.1794 11.530870725327851 12.248923302063393 12.156205195389427 0 0 0
536 0 2 0.5897 0.8948820521115383 19.575934713176835 10.795237923166635 0 0 -1
535 0 1 -1.1794 0.6020676560661746 19.654165585158005 9.898349902601252 0 0 -1
1784 0 2 0.5897 4.439141200747725 19.816619116493047 10.324961325484583 1 0 0
1838 0 2 0.5897 1.3332925001800695 16.178111509511023 11.268894150574482 0 0 0
7 0 1 -1.1794 2.0908797729897035 17.59981530525837 8.865595398161526 0 -1 -1
8 0 2 0.5897 1.7275394907722312 16.78881053600358 8.497190035449284 0 -1 -1
584 0 2 0.5897 3.5323843566379227 17.874331595234597 9.874270305017074 0 -1 0
583 0 1 -1.1794 4.389951379459281 18.068190971162217 10.308952818152244 0 -1 0
585 0 2 0.5897 4.998727909282616 17.486145129372414 9.787615200652693 0 -1 0
1837 0 1 -1.1794 1.6295199394496178 16.563967660351558 12.113812722264242 0 0 0
83 0 2 0.5897 4.05623443232488 18.047165640927943 12.063199786109195 0 -1 -1
537 0 2 0.5897 1.1898276788625877 19.018017996584828 9.362252038201085 0 0 -1
797 0 2 0.5897 6.281531443841554 18.238436304189467 11.330558757762232 0 0 0
1328 0 2 0.5897 8.109522260181464 19.67319330821879 11.89728377148569 0 -1 0
1350 0 2 0.5897 9.474990147438898 19.912363752803078 9.042498910683667 0 0 0
1349 0 2 0.5897 10.906231335602474 19.886821853557198 8.766634316951395 0 0 0
1822 0 1 -1.1794 7.852162641458082 19.038921412911318 8.497125067141429 0 -1 0
1823 0 2 0.5897 7.569299441659666 18.814590878177068 9.419542847734812 0 -1 0
796 0 1 -1.1794 7.173293459613479 18.115978779735737 11.069558686074503 0 0 0
330 0 2 0.5897 10.443107420559663 17.25627563095621 11.089764145311063 0 -1 0
798 0 2 0.5897 7.449074756066041 17.33524514070355 11.580264511393171 0 0 0
328 0 1 -1.1794 10.26470975614141 18.12523597862787 11.553108353961743 0 -1 0
329 0 2 0.5897 10.399483802422267 18.808064755355687 10.926535206536588 0 -1 0
865 0 1 -1.1794 1.6414539930574816 3.789533011678426 12.631318734639192 0 0 1
1770 0 2 0.5897 2.186332518592432 0.22239041681145855 13.13526334327214 0 1 0
763 0 1 -1.1794 2.369899965875044 0.9904299837747583 15.090919024662622 0 0 0
764 0 2 0.5897 3.2402302611287506 1.3767822474929943 15.044535530263184 0 0 0
254 0 2 0.5897 4.8778499192029745 2.547599287514577 14.048017479323597 0 0 -1
255 0 2 0.5897 5.08164922003884 2.3647407377275544 15.55289377716631 0 0 -1
253 0 1 -1.1794 4.482315213971972 2.626501194863237 14.89424538835524 0 0 -1
765 0 2 0.5897 2.44839602420166 0.021232643390383076 15.195767900750269 0 0 0
867 0 2 0.5897 0.9016177274890452 3.4041161191810674 13.093742321415371 0 0 1
1643 0 2 0.5897 9.714051348257184 0.6086550358298697 12.809171433695532 0 1 1
1329 0 2 0.5897 7.235981665301896 0.33738321735128757 12.853538233335954 0 0 0
1102 0 1 -1.1794 9.95091803969175 3.909819853135925 12.78365991911969 0 1 1
1644 0 2 0.5897 11.067219861606837 1.3119748061734255 12.880557007075321 0 1 1
1642 0 1 -1.1794 10.515834285614945 0.6373990685944406 13.351940850948179 0 1 1
1104 0 2 0.5897 9.225870443777401 3.444253649938403 13.236879510371491 0 1 1
1888 0 1 -1.1794 6.921616194256403 1.1877670900319937 16.37746694253187 0 0 0
1890 0 2 0.5897 7.903646919343084 1.1804562869133615 16.55113568343261 0 0 0
75 0 2 0.5897 9.98645523751186 1.2942693157379066 14.966265243278174 0 0 0
73 0 1 -1.1794 9.69805117453961 1.3025221275946446 15.868557463144777 0 0 0
1832 0 2 0.5897 7.183132225594276 2.3276505919602912 14.348841031451983 0 0 0
1889 0 2 0.5897 6.718179204599553 0.49558654207970715 15.681903280796325 0 0 0
74 0 2 0.5897 10.393910898286421 1.8555941870305006 16.262272919998313 0 0 0
1128 0 2 0.5897 11.830769237404207 3.6958174589956787 15.329378556625873 0 1 1
1831 0 1 -1.1794 7.33828518555471 3.093278078137707 13.786162621674558 0 0 0
1833 0 2 0.5897 7.1349244709892625 3.8860440312296705 14.315939425445565 0 0 0
800 0 2 0.5897 2.3955922724626024 7.059992361324604 13.09682196661991 0 0 0
1305 0 2 0.5897 3.5852473628698722 4.1216955584100745 15.174375916432577 0 0 -1
866 0 2 0.5897 1.4770936876536707 4.7209559651131325 12.571418208434041 0 0 1
1303 0 1 -1.1794 3.2064267103386883 4.980949479223882 15.467513991989703 0 0 -1
1304 0 2 0.5897 2.6577181342666476 4.740200562171299 16.311256086165738 0 0 -1
801 0 2 0.5897 2.563607398178868 6.020121866600475 14.272272348144291 0 1 0
799 0 1 -1.1794 1.9505198007727858 6.38509061165945 13.612601170755529 0 0 0
1023 0 2 0.5897 5.342965383510304 5.96375445737847 13.934676078026573 0 1 -1
1021 0 1 -1.1794 5.471479863532463 6.538154042037737 13.175998081305321 0 1 -1
1098 0 2 0.5897 4.384117209813623 5.633468988666942 16.60884650013241 0 0 -1
507 0 2 0.5897 7.403917195622566 6.347499720027022 12.52881550679437 0 1 0
1272 0 2 0.5897 9.839011434883028 7.131296115637972 12.633012472581695 0 -1 0
1270 0 1 -1.1794 10.74893414715803 7.466524299120201 12.687299494920444 0 -1 0
77 0 2 0.5897 6.579985104269327 5.7051702753721365 16.146635056615384 0 1 -1
506 0 2 0.5897 8.67239091231051 5.42639632891682 12.532234655488732 0 1 0
1801 0 1 -1.1794 10.994785254664423 5.133864690475685 14.839898390089324 0 1 -1
1802 0 2 0.5897 10.684283735519491 4.809899423318364 14.004306965921584 0 1 -1
610 0 1 -1.1794 9.41891658386701 7.178644667909149 15.686293709651332 0 0 -1
78 0 2 0.5897 7.768924934666088 6.291617868993918 15.338286505771633 0 1 -1