LAMMPS data file via write_data, version 23 Jun 2022, timestep = 3848000

2268 atoms
2 atom types

0.6756966991806159 46.7750023008038 xlo xhi
0 20.047001 ylo yhi
0 20.857 zlo zhi

Masses

1 1.008
2 15.999

Atoms # full

1860 0 2 0.5897 3.142725940507664 2.673843348229066 1.6323757319295573 0 0 0
7 0 1 -1.1794 1.2528401826025974 2.4281352363662223 0.8473895102687211 0 0 -1
1858 0 1 -1.1794 4.0576850430368 2.615952546216945 1.8498160343637435 0 0 0
2067 0 2 0.5897 5.3091502720609975 1.4092068460409022 1.7191390795200132 0 1 -1
393 0 2 0.5897 5.182217431156068 3.9315503865533437 1.5488319010486584 0 0 0
1859 0 2 0.5897 4.166540387455861 2.719585859959189 2.8433898340656345 0 0 0
2066 0 2 0.5897 6.073016946819359 0.09838483915393308 2.108722920432438 0 1 -1
342 0 2 0.5897 3.0460283682357208 0.13315974686771892 3.3585439113574993 0 0 0
2065 0 1 -1.1794 6.214845733988147 1.0286823761366464 1.8773964971337946 0 1 -1
8 0 2 0.5897 0.8858151652812469 2.729869474555571 0.00920984074343765 0 0 -1
1328 0 2 0.5897 8.835861817887086 0.7041512971903648 1.0959516994988714 0 0 0
1335 0 2 0.5897 11.059593700432197 1.6706439976631404 3.3255127004606804 0 0 1
2042 0 2 0.5897 7.631038567984577 1.392759467931549 3.0199269313303883 0 1 1
1333 0 1 -1.1794 10.429028879538343 0.9408839983690884 3.536116676239315 0 0 1
1334 0 2 0.5897 10.94671439264185 0.4384515394135821 4.16752949964296 0 0 1
2043 0 2 0.5897 8.87160340432008 1.4191161020343765 4.0582251392825395 0 1 1
2041 0 1 -1.1794 7.983447100467622 1.57278276051066 3.8897929140577947 0 1 1
1379 0 2 0.5897 7.69798021620643 3.390924257416787 3.7532860118539553 0 1 0
1617 0 2 0.5897 11.186351317080197 3.4329478231892327 1.9544120626895907 0 -1 0
1615 0 1 -1.1794 11.919130432328853 3.0285930120677196 2.493386497825624 0 -1 0
281 0 2 0.5897 7.22051135377972 1.8495510265201816 0.6315056928432372 0 0 1
280 0 1 -1.1794 8.051405401038272 2.247296419468554 0.3267149171722994 0 0 1
391 0 1 -1.1794 5.8540720334834635 4.623001864603515 1.4110253284541827 0 0 0
392 0 2 0.5897 5.610509131228215 5.390018507407775 1.9475848229788717 0 0 0
77 0 2 0.5897 3.1901531520434188 6.805489367921469 2.821299343337064 0 1 0
78 0 2 0.5897 1.8184492730507507 6.874188626011595 2.3211122826963337 0 1 0
76 0 1 -1.1794 2.5400575650489383 6.2915366752931305 2.322272983913084 0 1 0
772 0 1 -1.1794 5.548699114231061 6.630049379225778 3.180726144511144 0 1 0
512 0 2 0.5897 3.1456337200847377 5.920984455682471 0.6020482366985684 0 1 1
774 0 2 0.5897 5.692381825236419 6.288038305500127 4.0556389529691605 0 1 0
251 0 2 0.5897 1.5097955730564983 5.1971287456574835 3.5466673572412457 1 0 0
773 0 2 0.5897 6.39712740057747 7.027470505202052 2.901081358821242 0 1 0
896 0 2 0.5897 8.991170201797182 4.083055070130818 2.1445258743775293 0 1 1
1380 0 2 0.5897 6.879399340307081 4.315919513437931 2.8284380430209892 0 1 0
1378 0 1 -1.1794 7.607821379431009 4.3544742435543 3.552890475594857 0 1 0
895 0 1 -1.1794 9.703566123752692 4.252991295350931 1.5258101210260868 0 1 1
897 0 2 0.5897 9.858862707412937 5.244924690160987 1.7069001469115546 0 1 1
2077 0 1 -1.1794 10.355747799236173 7.045409990988518 1.522690227088696 0 1 1
304 0 1 -1.1794 11.688671232038953 5.831244384528246 4.167082976222906 0 -1 0
795 0 2 0.5897 6.946523366211229 7.474663881125028 1.1743444220787855 0 1 0
794 0 2 0.5897 8.425503209964848 7.2104016332825 1.6593693503954825 0 1 0
793 0 1 -1.1794 7.590283732825185 7.694335076181278 1.8663495334854427 0 1 0
2078 0 2 0.5897 10.869257889294778 7.338226878740977 0.7522580649370607 0 1 1
2079 0 2 0.5897 10.435882806186687 7.880534380719906 2.069931303264641 0 1 1
1554 0 2 0.5897 4.312248746951429 8.785678952509308 2.938570056473288 0 0 0
1553 0 2 0.5897 3.089333748836041 9.605235405771662 3.370162703464159 0 0 0
1552 0 1 -1.1794 3.5496724108843556 9.239329591562258 2.6149862974959284 0 0 0
387 0 2 0.5897 3.950893116287005 10.378302492819625 1.400498088897369 0 0 0
385 0 1 -1.1794 4.476695589417356 10.906014638508362 0.8105601098021877 0 0 0
386 0 2 0.5897 5.361390233956213 10.731036436099782 1.2533847496522759 0 0 0
890 0 2 0.5897 1.1288639525684072 10.549156254674786 4.150093410748536 0 1 1
41 0 2 0.5897 2.301350992090966 8.507350380541208 0.951302923276384 0 1 1
888 0 2 0.5897 4.82761578846847 11.312775264037581 4.129176211637774 0 -1 0
40 0 1 -1.1794 1.8688897486586433 8.684998680481817 0.14038707088737604 0 1 1
814 0 1 -1.1794 10.262380634247917 9.479878630707084 3.045107883163358 0 0 1
816 0 2 0.5897 9.38717638971138 9.23876305851889 3.4042059365965223 0 0 1
24 0 2 0.5897 7.215677914077164 9.492916370106474 2.0249902422858517 0 -1 1
22 0 1 -1.1794 6.825784220079843 10.347806517466038 1.7350124363769663 0 -1 1
23 0 2 0.5897 7.047367263608903 10.95250763424313 2.4246930631295016 0 -1 1
2157 0 2 0.5897 11.19059201780926 11.03955946115373 3.9245207968785762 0 1 0
815 0 2 0.5897 10.002762332004327 9.943815852813316 2.2414071573645833 0 0 1
784 0 1 -1.1794 8.12064445668338 11.55430364763206 4.0043830051911975 0 0 0
1579 0 1 -1.1794 9.727552224740005 10.493180123968662 0.6040394148387949 0 1 1
1581 0 2 0.5897 10.621862608923967 10.686499147669021 0.3871094715298939 0 1 1
886 0 1 -1.1794 4.813465436838482 12.218281982040429 3.828173417759977 0 -1 0
887 0 2 0.5897 4.94205652552484 12.135973863707177 2.847235952813127 0 -1 0
1048 0 1 -1.1794 2.7817988464492736 15.187421223684304 0.22879215012041462 0 1 -1
1049 0 2 0.5897 2.3980204272423125 14.877083922389835 1.0796488207372097 0 1 -1
2023 0 1 -1.1794 6.139967900644478 13.593420381950327 1.3266579626648498 0 1 0
2024 0 2 0.5897 6.119893562374136 14.390348854648217 1.9199631485806832 0 1 0
1113 0 2 0.5897 2.1504409857521134 13.756943269003193 3.981006335932097 0 -1 1
2025 0 2 0.5897 6.3203238569725215 13.943006025119992 0.44185659639066244 0 1 0
844 0 1 -1.1794 1.2563291920187505 14.580055241900594 2.6571886847581285 0 -1 -1
638 0 2 0.5897 6.378453864746739 15.161484461886472 3.803724355141465 0 0 1
845 0 2 0.5897 1.2986349031253979 15.490747139890688 2.932214838588246 0 -1 -1
1338 0 2 0.5897 9.10152874695891 12.11833679815419 1.0080121766473729 0 0 0
363 0 2 0.5897 10.63775798030245 13.476551146481931 1.5225084476112902 0 -1 0
361 0 1 -1.1794 11.564549576381067 13.560498227328308 1.4605106237581988 0 -1 0
2033 0 2 0.5897 9.46430385589643 14.707363407015153 3.5970395193686775 0 -2 0
637 0 1 -1.1794 6.456576373920494 15.86838135765095 3.0998224630910145 0 0 1
1337 0 2 0.5897 8.03073235568267 13.284715331812333 1.2920892280764629 0 0 0
362 0 2 0.5897 11.795735506765237 14.171205277331001 0.7232090633453865 0 -1 0
1336 0 1 -1.1794 8.90689232395917 13.062932485708636 0.8814379357832614 0 0 0
786 0 2 0.5897 8.458410592753681 12.492498368266462 4.1423149277945175 0 0 0
597 0 2 0.5897 3.755995017280153 19.91594342572174 0.9107309247510244 0 0 1
297 0 2 0.5897 4.099784896205344 16.323578971958817 0.7141245476367151 0 1 1
296 0 2 0.5897 5.095394354445943 16.628789616406173 2.0235714791727837 0 1 1
295 0 1 -1.1794 4.61041168620393 17.002452543299484 1.2858942191098366 0 1 1
1355 0 2 0.5897 1.584859834167923 19.508377717502995 1.7315845175526203 0 0 1
595 0 1 -1.1794 3.4725316653155454 19.470039089869097 1.722571007892932 0 0 1
596 0 2 0.5897 3.665308120640464 18.5339324758184 1.4857042768442354 0 0 0
254 0 2 0.5897 5.967001201242731 17.945597467530728 0.33288209196993196 0 -1 0
523 0 1 -1.1794 1.6648746815820599 17.150687881436156 3.7874806496337237 0 -1 1
525 0 2 0.5897 1.4631599633234693 18.006036476145535 3.4375590985785807 0 -1 1
1354 0 1 -1.1794 0.683231870857872 19.24523944682569 1.915833108462897 0 0 1
788 0 2 0.5897 6.087539094037285 18.05479933375736 3.57729729818086 1 0 0
1327 0 1 -1.1794 9.284341023619904 19.890608543273885 1.2157395058636393 0 -1 0
1329 0 2 0.5897 9.863060872119975 19.998560244143405 2.0039098880476107 0 -1 0
255 0 2 0.5897 7.500117373421767 18.20341481574904 0.4634767694058098 0 -1 0
787 0 1 -1.1794 6.454165940331343 18.882920074543545 3.3304742512728103 0 0 0
639 0 2 0.5897 7.437679263437043 16.10830621610966 2.9288002285277352 0 0 1
1989 0 2 0.5897 9.075341850112752 16.26970607446902 1.6139794564604284 1 0 1
1987 0 1 -1.1794 9.03128003458355 16.266289091061857 2.579621393167536 1 0 1
559 0 1 -1.1794 11.169315690438848 17.913701939173162 3.137176172943931 0 0 0
1988 0 2 0.5897 9.638037845063234 17.00365782364652 2.832872736822773 1 0 1
561 0 2 0.5897 11.995706319625647 17.5179739529917 3.4359444983900573 0 0 0
1055 0 2 0.5897 11.701239991596957 18.713774197523204 1.4224715416895921 0 0 0
560 0 2 0.5897 10.731432068644553 18.314106136156884 3.9120977394559944 0 0 0
789 0 2 0.5897 7.373077839886047 18.74394272270309 3.6660742977890117 0 0 0
1056 0 2 0.5897 12.14149928185469 19.903846625196604 0.47310383245190213 0 0 0
839 0 2 0.5897 1.1162233885448576 3.445886281567569 4.572478465117166 0 1 0
840 0 2 0.5897 1.7007347933450903 1.9983651931308306 4.470737591977544 0 1 0
838 0 1 -1.1794 1.2391663111929083 2.5988398057045123 5.0310841837285265 0 1 0
1620 0 2 0.5897 2.9680152568917633 2.0056633615545283 7.845461000114234 0 0 0
1619 0 2 0.5897 1.9352116898682907 2.4423371186594602 6.8033889764458415 0 0 0
1618 0 1 -1.1794 2.118472352437249 2.416577349352329 7.773004698595343 0 0 0
1138 0 1 -1.1794 4.196139961032852 2.7307996628324958 4.66819853230178 0 1 0
1140 0 2 0.5897 5.007371637014018 2.2606007610948224 4.877861835924298 0 1 0
1139 0 2 0.5897 4.0973320059366225 3.5494239098435076 5.195105203398747 0 1 0
341 0 2 0.5897 3.3064768652302967 1.106465525150965 4.488443650891126 0 0 0
574 0 1 -1.1794 5.115202036830646 1.628235739181444 8.318548967067374 0 0 0
2074 0 1 -1.1794 6.0291623728550725 1.05506650066048 5.718913832891085 0 1 -1
2075 0 2 0.5897 5.951440488454529 0.22537283620108886 6.216570670263594 0 1 -1
340 0 1 -1.1794 2.7422331895364778 0.34369178907660064 4.2178576995561885 0 0 0
575 0 2 0.5897 5.360009548414034 1.8129093021381093 7.411475356230504 0 0 0
1529 0 2 0.5897 7.011304097796395 2.7593990463741345 6.558441643945942 0 1 0
2076 0 2 0.5897 6.820526654079472 1.042988239381844 5.0628498133956485 0 1 -1
2058 0 2 0.5897 10.0047569550964 1.4288504395827082 6.987819755534015 0 1 0
2056 0 1 -1.1794 9.804415260211298 0.49911553146042187 7.148788485837981 0 1 0
2057 0 2 0.5897 10.610480086051714 0.0888513435616806 7.553098004743768 0 1 0
58 0 1 -1.1794 10.468100896174185 3.250747251430006 6.693496756242674 0 1 0
60 0 2 0.5897 9.596314146071967 3.6015559387466465 6.413661471488609 0 1 0
59 0 2 0.5897 10.773718470660715 3.7516574225329715 7.449098352012857 0 1 0
2120 0 2 0.5897 11.816749243098682 3.431112249875733 5.531134904474262 0 1 0
1528 0 1 -1.1794 7.600613200460067 3.456437733019474 6.875885036957084 0 1 0
1530 0 2 0.5897 7.2138482760167655 3.657641907421062 7.758970100248742 0 1 0
1107 0 2 0.5897 1.4509385710472773 7.5627210151252795 4.430600906814437 0 0 0
1252 0 1 -1.1794 3.6447054256316704 5.239884679760738 6.116671107390819 1 1 0
1253 0 2 0.5897 3.1708557732020664 5.872077300761012 5.545792916277815 1 1 0
1506 0 2 0.5897 5.3857535304833135 5.694021857489428 6.357284464250293 1 1 0
1504 0 1 -1.1794 6.274767697978617 6.095978041747689 6.172326048914781 1 1 0
1254 0 2 0.5897 3.0831540246570026 5.149551461214487 6.921139759039702 1 1 0
335 0 2 0.5897 5.9239841004659155 7.5490493566957095 6.960357817403832 0 0 1
1105 0 1 -1.1794 2.2007710318002474 7.373119373037837 5.059716862046661 0 0 0
552 0 2 0.5897 9.967457685393477 5.772261767459229 4.499879962895302 0 0 0
551 0 2 0.5897 8.500441678942078 5.444922356572799 4.287043662265356 0 1 0
550 0 1 -1.1794 9.060453488614746 6.058481845298669 4.745806237142682 0 0 0
506 0 2 0.5897 8.195316932784335 7.827333259948944 4.956040506692131 0 1 0
1505 0 2 0.5897 6.8293037425573155 5.400147182053133 6.507876703397139 1 1 0
2147 0 2 0.5897 9.311433609059355 6.458461599184206 6.566762841664561 0 1 0
2146 0 1 -1.1794 9.562375841849219 6.697432271458755 7.486065433521855 0 1 0
2148 0 2 0.5897 10.448245879834806 6.3014050552541665 7.696920931354708 0 1 0
306 0 2 0.5897 12.057640334877453 6.677811957834065 4.6424512556292505 0 -1 0
889 0 1 -1.1794 1.5654145752825226 10.06345467229502 4.874838076901113 0 1 1
334 0 1 -1.1794 5.400386271791299 8.064554239783009 7.5975646713627025 0 0 1
1106 0 2 0.5897 2.227107035428653 8.045668721670983 5.723928456453039 0 0 0
881 0 2 0.5897 6.150439275586678 9.27003051332034 4.943307323652274 0 0 0
880 0 1 -1.1794 5.232612064922639 9.561433105195798 5.014004438831151 0 0 0
882 0 2 0.5897 5.044258672465548 9.275846598376923 5.8848081316729 0 0 0
2144 0 2 0.5897 3.5360481282045835 8.412422073103388 7.586704865656779 0 1 1
555 0 2 0.5897 2.5092313049936186 10.520790148504434 7.341801517224829 0 0 1
2143 0 1 -1.1794 2.6145550053803635 8.766464395794937 7.594499361503804 0 1 1
891 0 2 0.5897 1.8875822275514378 10.607565025535296 5.566998210698436 0 1 1
553 0 1 -1.1794 2.773795933285282 11.429215537684088 7.141440133582263 0 0 1
2145 0 2 0.5897 2.0169425823754183 8.057295508648853 7.865490792080229 0 1 1
336 0 2 0.5897 6.072884758344477 8.640058914778892 7.990006108850406 0 0 1
2115 0 2 0.5897 4.397224786197345 11.3177941468313 7.468718184314034 0 -1 0
2113 0 1 -1.1794 5.273055394974267 11.388774179893439 7.874058966012033 0 -1 0
2114 0 2 0.5897 5.878614741470487 11.748415970040238 7.237474443648966 0 -1 0
505 0 1 -1.1794 7.909287288690455 8.735576853335365 4.933762143037399 0 1 0
324 0 2 0.5897 9.294169967434321 8.42997143277214 7.485845855261416 0 0 1
507 0 2 0.5897 8.285886095663361 9.115186846849442 5.735899918475258 0 1 0
322 0 1 -1.1794 8.80399440613984 9.229957951671182 7.312760462477628 0 0 1
323 0 2 0.5897 9.50004321785323 9.966842695259793 7.328104954232498 0 0 1
1036 0 1 -1.1794 10.261683126183271 11.803078452185284 7.178596384014698 0 0 0
785 0 2 0.5897 7.502088799755594 11.410913897375814 4.743709289212586 0 0 0
2155 0 1 -1.1794 11.4958288914202 11.798835682885064 4.4748944753399975 0 1 0
1793 0 2 0.5897 11.700140727421731 10.282445265390955 7.5394890247353645 0 -1 1
1792 0 1 -1.1794 12.189794076002764 9.439483076516813 7.623313557537998 0 -1 1
1778 0 2 0.5897 12.189812723081925 8.626860637443707 5.894838882325665 0 0 0
554 0 2 0.5897 2.327355563971767 12.10029977270489 7.694082879703015 0 0 1
1112 0 2 0.5897 3.2354791865189574 12.728456881525844 4.249738451479969 0 -1 1
1821 0 2 0.5897 5.832585570990815 13.402946045417998 4.749175652845082 0 0 0
1111 0 1 -1.1794 2.4164683260308193 13.10271298420822 4.664444944700411 0 -1 1
2262 0 2 0.5897 3.013024487695469 14.441222303932307 6.01480198546739 1 -1 1
2260 0 1 -1.1794 3.1372954919727816 14.97107347102645 6.806240050841282 1 -1 1
2261 0 2 0.5897 2.7143277445645717 14.518596840324049 7.531335134361624 1 -1 1
1353 0 2 0.5897 5.225211888216841 15.750281979446408 6.611306986365005 0 -1 -1
1819 0 1 -1.1794 6.16706157030992 14.246455893855439 5.010752761295596 0 0 0
1352 0 2 0.5897 5.3831302635432925 15.553351265749738 8.005817834599242 0 -1 -1
1351 0 1 -1.1794 5.834942766606959 15.97597309624413 7.313840712063991 0 -1 -1
477 0 2 0.5897 1.0313003209012561 12.73053276374129 5.7815678609706636 1 0 0
1086 0 2 0.5897 0.7190130253260112 13.303410932762882 8.19889649345444 0 1 0
2156 0 2 0.5897 10.946017816016138 12.515463079635602 4.177738622768568 0 1 0
2032 0 1 -1.1794 9.766009074467691 14.054063197209553 4.200857257528925 0 -2 0
1037 0 2 0.5897 10.508900116846874 12.204675281440599 6.320956984133341 0 0 0
1038 0 2 0.5897 10.643307828789856 12.46598110903296 7.866947693937372 0 0 0
630 0 2 0.5897 10.580743450358716 14.774151679166657 7.2590470116711705 0 0 0
96 0 2 0.5897 8.400599553021927 12.437419991136627 6.747479029223712 0 -1 1
2034 0 2 0.5897 9.908940017471219 14.57920813336292 5.035368002987589 0 -2 0
94 0 1 -1.1794 7.556951962934665 12.744655250598592 7.0306420766174895 0 -1 1
1820 0 2 0.5897 6.817647152312529 14.06747691673004 5.718477347901252 0 0 0
95 0 2 0.5897 7.737626893912145 13.353286223693857 7.758513818426971 0 -1 1
628 0 1 -1.1794 10.591898252783853 15.384031573628818 6.462972605495374 0 0 0
629 0 2 0.5897 11.501648776913198 15.695972987238653 6.501535669416864 0 0 0
729 0 2 0.5897 1.5812596077763406 19.629893590790324 5.501688533590307 1 0 0
728 0 2 0.5897 0.8841548957491201 19.70396467108083 6.900702001607094 1 0 0
524 0 2 0.5897 2.4621539739790825 17.242145071040383 4.358393542033154 0 -1 1
2046 0 2 0.5897 4.694762867178219 18.091069997709443 5.640830361490923 0 -1 0
2045 0 2 0.5897 3.971492801202416 18.596768569595213 4.405140624876927 0 -1 0
2044 0 1 -1.1794 4.273565915795272 17.76563673420663 4.855571765467208 0 -1 0
1076 0 2 0.5897 2.692124004241204 16.506743974401775 7.2565348573500925 0 -1 0
1075 0 1 -1.1794 2.46446430485656 17.366288708393615 7.659243928209714 0 -1 0
1347 0 2 0.5897 5.520797566075852 18.63511296692367 7.82328336362227 0 -2 0
1077 0 2 0.5897 1.8853527418079878 17.801985310268506 6.999780661036714 0 -1 0
1345 0 1 -1.1794 5.913859408850487 18.847549389475596 6.956336125952212 0 -2 0
727 0 1 -1.1794 0.9534584559523112 19.166547235910837 6.104308403415327 1 0 0
314 0 2 0.5897 7.795366834212221 16.385460238520217 6.645939888532565 0 0 0
1346 0 2 0.5897 6.726656108467477 18.348524022235537 6.934433639880448 0 -2 0
1536 0 2 0.5897 9.18066802154942 19.557791774995536 5.6884034794059986 0 -2 -1
315 0 2 0.5897 9.283775986330765 16.638132272181625 7.119236923449338 0 0 0
1534 0 1 -1.1794 9.018914077461764 18.833534720293574 5.084356405953302 0 -2 -1
313 0 1 -1.1794 8.40570944080698 17.041429317357924 6.956171786268446 0 0 0
1535 0 2 0.5897 8.911214487969735 18.08304446971505 5.675550462784704 0 -2 -1
44 0 2 0.5897 12.19302192379714 19.696235097705124 5.933913477015053 0 -1 0
576 0 2 0.5897 4.841076421383043 0.7132122661023323 8.380998574007613 0 0 0
1883 0 2 0.5897 0.954898269625148 1.0200288590301028 8.5796454766054 0 1 1
1285 0 1 -1.1794 2.612543721283731 1.5358706100867303 10.679144439547139 0 0 1
1287 0 2 0.5897 2.4115603532476566 0.597074114710662 10.615551081722549 0 0 1
899 0 2 0.5897 4.067580887746541 2.746620916159502 10.371825908907274 0 0 0
898 0 1 -1.1794 4.575912113975247 3.536406299753522 10.59473779303821 0 0 0
900 0 2 0.5897 4.118438987930874 3.9146420559519437 11.35442422997206 0 0 0
1281 0 2 0.5897 5.8998053941172115 2.53532605674321 11.429504213497555 0 1 -1
1286 0 2 0.5897 2.789301467209016 1.5509036385549304 11.610359846776227 0 0 1
843 0 2 0.5897 1.0401036184424932 2.504900611481891 10.588622429861168 0 0 0
1824 0 2 0.5897 8.560050442603927 0.4778978009512504 8.3431260818534 0 0 -1
607 0 1 -1.1794 11.952932074767677 2.1973838030856347 11.14875471636024 0 1 1
1823 0 2 0.5897 7.117120962463207 0.9927970815955556 8.774357113341281 0 0 -1
609 0 2 0.5897 11.116228516104373 1.702257862249921 11.067779694809753 0 1 1
1822 0 1 -1.1794 7.9465175141334194 0.5559746761312505 9.079983422418442 0 0 -1
344 0 2 0.5897 9.082142374538067 3.098204677237959 11.232112045209343 0 -1 -2
782 0 2 0.5897 8.915633975875918 1.0142202292445095 10.99015375114388 0 -1 0
781 0 1 -1.1794 9.512506619432173 0.9680994193097713 11.737473192589473 0 -1 0
343 0 1 -1.1794 9.120337394584771 4.000721144235615 10.835887614360766 0 -1 -2
345 0 2 0.5897 8.23236752951355 3.986852502645431 10.44589366098538 0 -1 -2
1279 0 1 -1.1794 6.443524871801682 2.164914322193308 12.106196731935839 0 1 -1
1533 0 2 0.5897 6.500638225993955 0.3594902357184721 12.406452635522312 1 1 0
641 0 2 0.5897 5.908818686149236 4.418841183106065 9.676890740689263 0 0 0
1642 0 1 -1.1794 2.3012592100999023 5.060419144087682 8.509526582590494 0 0 1
2052 0 2 0.5897 4.7154294747593 6.890274936959178 8.996307940512128 0 0 0
1643 0 2 0.5897 2.2253888882188244 4.078586829541913 8.505395395331009 0 0 1
1644 0 2 0.5897 3.1159166433641627 5.23825209053705 8.98450259897433 0 0 1
2050 0 1 -1.1794 4.239716267772904 6.572131075786879 9.768952365877745 0 0 0
2051 0 2 0.5897 3.6629717864616067 7.29765512770724 10.07730340915743 0 0 0
1839 0 2 0.5897 1.0748906280558488 4.678607670330103 11.448570944341398 0 1 0
1838 0 2 0.5897 1.3162933152471723 6.254237539770782 11.093800186433906 0 1 0
1260 0 2 0.5897 0.9674825604902122 6.1045546767369885 8.776435920308497 1 0 0
1837 0 1 -1.1794 1.2936569296435576 5.584996951866675 11.787307992741482 0 1 0
32 0 2 0.5897 5.486571028493107 6.98994548867847 11.029011147877098 0 0 -1
31 0 1 -1.1794 5.719114914009483 7.047407749856138 11.974480684058324 0 0 -1
1613 0 2 0.5897 4.5547206775480396 5.863460758458643 12.460926280356185 0 1 0
2116 0 1 -1.1794 11.579225587153353 7.705016808841421 9.629876031032303 0 -1 1
640 0 1 -1.1794 6.64433609592322 4.7766524547682065 9.128531038169635 0 0 0
642 0 2 0.5897 6.7797218903856065 5.702880597959821 9.378954513768441 0 0 0
1766 0 2 0.5897 10.482071986254379 4.333450993195526 9.686531119729134 0 -1 1
1765 0 1 -1.1794 10.946450653187094 4.731870816950267 8.93408907597342 0 -1 1
1767 0 2 0.5897 11.918306731829848 4.641873784488468 9.117397231134028 0 -1 1
2118 0 2 0.5897 11.090262131172523 7.760428414403497 10.503109405045736 0 -1 1
1633 0 1 -1.1794 8.152299189394649 7.036790060288474 9.892191893214687 0 1 -1
1634 0 2 0.5897 8.815591455480199 6.675111693583536 9.245554643569962 0 1 -1
1635 0 2 0.5897 8.607085414849365 7.503340061974102 10.589039230011542 0 1 -1
1785 0 2 0.5897 8.268839805344529 5.172205390456232 12.153451782293049 0 1 0
2117 0 2 0.5897 11.610304993773223 6.769112981713558 9.50271250571763 0 -1 1
33 0 2 0.5897 6.576355573101541 6.58423430949112 12.148807923499321 0 0 0
25 0 1 -1.1794 1.183131405361921 9.830263057444798 10.885527592802761 0 -1 1
27 0 2 0.5897 1.847256637100715 9.466995008639593 10.280402244144625 0 -1 1
1371 0 2 0.5897 4.489479588713986 9.2352223219402 10.747631029929456 0 0 0
1369 0 1 -1.1794 3.5645866380701157 8.921104773035696 10.793621815127898 0 0 0
1370 0 2 0.5897 3.41425228866878 8.721778783019658 11.699806962133309 0 0 0
1769 0 2 0.5897 6.167690924349994 8.883355553243272 12.192838959288604 0 0 0
635 0 2 0.5897 1.441245090693513 11.781691077534628 11.227095090713624 0 -1 0
298 0 1 -1.1794 9.566967952565973 8.295547564401042 11.810015825135213 0 -1 1
1768 0 1 -1.1794 6.542981306795794 9.800408483817268 12.222325109861455 0 0 0
539 0 2 0.5897 7.662891647860348 9.480177849300944 8.801892737466128 0 -1 1
540 0 2 0.5897 6.467079663491023 10.43567677582348 8.81202631895798 0 -1 1
1770 0 2 0.5897 6.9257504277259505 9.903834345764688 11.321094575707148 0 0 0
538 0 1 -1.1794 6.850708156782476 9.702747477675887 9.312840699366356 0 -1 1
299 0 2 0.5897 9.717059647708972 9.208594366192248 12.086442874653128 0 -1 1
1788 0 2 0.5897 9.019437463552643 11.671941126839132 10.553084692363065 0 1 0
1786 0 1 -1.1794 9.789205169821635 11.117994684823715 10.476269167239765 0 1 0
1787 0 2 0.5897 10.551777176869702 11.65614168670893 10.734115680403535 0 1 0
1794 0 2 0.5897 11.81505590083831 9.085645776151477 8.459271382985035 0 -1 1
1084 0 1 -1.1794 1.6440192862786773 13.306025747414166 8.451429756844789 0 1 0
634 0 1 -1.1794 1.978804314741423 12.572467634729287 11.154088829874429 0 -1 -1
636 0 2 0.5897 1.6117609373780064 13.212154343217701 11.710517362650812 0 -1 -1
1799 0 2 0.5897 3.734491560717578 13.030207477178442 10.576353143929166 0 0 -1
1085 0 2 0.5897 1.6054228540999378 13.009731949225467 9.385577497497646 0 1 0
1862 0 2 0.5897 4.848741334764251 15.011820060479039 10.257619435867786 0 -1 1
382 0 1 -1.1794 2.0012102921137913 15.155059210059749 12.159559076224413 0 1 0
384 0 2 0.5897 1.9384381046627028 15.460815891540047 11.256445912164097 0 1 0
383 0 2 0.5897 2.933013244967932 14.909781117130668 12.400823666691068 0 1 0
1800 0 2 0.5897 4.663900489901206 12.563904128150172 9.347401994721787 0 0 -1
1798 0 1 -1.1794 4.538475698395697 13.209580884594569 10.052715700410834 0 0 -1
1861 0 1 -1.1794 5.285566706990797 15.908721856333182 10.410459197148523 0 -1 1
1863 0 2 0.5897 6.208686703934192 15.597664702494281 10.520330519142744 0 -1 1
2268 0 2 0.5897 6.404540929584486 13.003176596540568 10.525210041635878 1 0 0
2149 0 1 -1.1794 11.36178978559404 13.522134479432259 8.692109356712765 0 -1 1
780 0 2 0.5897 7.489358687092871 15.328833584145611 9.173226894764543 0 0 1
778 0 1 -1.1794 8.202548912842008 14.693213386606972 9.144310181229873 0 0 1
2151 0 2 0.5897 11.112675545964432 13.944541950294964 9.515048460409774 0 -1 1
779 0 2 0.5897 8.139171222378781 14.126246379341007 9.927994948830854 0 0 1
1093 0 1 -1.1794 10.225666506837694 14.21750672733563 11.249973506266016 0 0 0
1095 0 2 0.5897 9.618358588767572 14.225001678066729 11.979689390263037 0 0 0
1094 0 2 0.5897 11.080704246587308 14.373415553212096 11.691969982154282 0 0 0
2266 0 1 -1.1794 7.275715789859931 12.984162965792109 10.979992566458431 1 0 0
2267 0 2 0.5897 7.182338739455842 13.313774970556494 11.859723075197547 1 0 0
849 0 2 0.5897 9.864367172613804 15.952373863741297 9.526460096519745 0 0 0
92 0 2 0.5897 0.7752683980546433 18.884851317514727 11.731049353885318 0 0 1
883 0 1 -1.1794 0.9678702558524501 16.180587179729233 9.624142290774312 0 0 0
530 0 2 0.5897 3.529136331357623 18.39353155044437 8.361336713973119 0 -1 1
884 0 2 0.5897 0.8719881391282979 16.9215650444844 10.220020136473387 0 0 0
867 0 2 0.5897 4.675638798318488 17.585561750177494 10.899624208069255 0 -1 1
529 0 1 -1.1794 4.171618885071645 19.16984024901988 8.667760736105375 0 -1 0
885 0 2 0.5897 1.4831380879161888 16.475718016329722 8.845595134095296 0 0 0
531 0 2 0.5897 4.312955482462297 19.115757531918955 9.614327819277198 0 -1 1
91 0 1 -1.1794 1.3438961391222932 18.687563953080684 11.019957558592877 0 0 1
866 0 2 0.5897 4.865987505711104 18.816931862557038 11.666568079946767 0 -1 1
93 0 2 0.5897 2.2162918195712487 18.483767057850752 11.378163287513019 0 0 1
865 0 1 -1.1794 4.181754950974414 18.33360367713875 11.230291135362227 0 -1 1
1884 0 2 0.5897 1.0322775215171147 19.654086842628974 9.250409208863692 0 0 1
600 0 2 0.5897 11.946396298379033 19.089440373881516 9.136156788092086 0 -2 0
1128 0 2 0.5897 8.119114257238477 17.586150596670482 8.58764193986021 0 0 2
790 0 1 -1.1794 7.916238144051192 17.566171010112072 11.944932867824381 0 -1 1
848 0 2 0.5897 10.511016456151681 17.40922628831707 9.94126987194499 0 0 0
327 0 2 0.5897 10.752931741706536 19.52082250786557 11.109881352082272 0 0 -2
325 0 1 -1.1794 11.343957254416129 18.89314876807549 10.79332840028283 0 0 -2
1126 0 1 -1.1794 7.604631826068882 17.952027827698195 9.31060387571456 0 0 2
1127 0 2 0.5897 7.717046862449546 18.869871203671806 9.177390158078941 0 0 2
847 0 1 -1.1794 10.50915814750882 16.649159987027353 9.35915268793488 0 0 0
791 0 2 0.5897 7.898200353729286 17.588301314227866 10.961417868901316 0 -1 1
326 0 2 0.5897 11.93049015610043 18.660689447884586 11.571393885706375 0 0 -2
1532 0 2 0.5897 7.098866141795342 19.0203977971316 12.308043525143601 0 0 0
792 0 2 0.5897 8.74205686539657 17.35835347621367 12.302407918866404 0 -1 1
1025 0 2 0.5897 12.151541917465854 16.25392795959708 9.799138063793155 0 -1 0
2086 0 1 -1.1794 2.4755963399662253 1.7195867180703017 13.52668981503105 0 0 0
2088 0 2 0.5897 1.5049214591449576 1.7331125780832102 13.444149289311756 0 0 0
2087 0 2 0.5897 2.7058812422803 0.9537940043183912 14.050392368310217 0 0 0
1091 0 2 0.5897 2.9248372685130324 3.6487027032182775 14.203439003209493 0 0 0
2035 0 1 -1.1794 6.100427204032161 3.980030331856231 14.266405820317498 0 0 -1
1833 0 2 0.5897 4.045400116338924 3.2635729196098087 16.307867990783723 0 0 0
1608 0 2 0.5897 1.8330815684949393 3.6869696580131266 16.20330798235513 0 -1 0
1280 0 2 0.5897 6.382283918576776 2.7288309408828835 12.893196473106997 1 0 -1
1602 0 2 0.5897 6.133481090742371 1.8528757659634536 16.173368779578507 0 0 0
1090 0 1 -1.1794 3.2415695962118276 3.9701710669242214 15.01668936206698 0 0 0
783 0 2 0.5897 9.060785252636187 1.331054445190065 12.528808157662704 0 -1 0
1893 0 2 0.5897 11.271284415636297 3.462562437740445 12.752805940777193 0 0 -1
330 0 2 0.5897 11.412150838843422 0.3484838370600925 16.341981055597422 0 0 -1
1892 0 2 0.5897 11.69175955488255 3.2842768214577465 14.063263726155425 0 0 -1
1891 0 1 -1.1794 10.957037867226854 3.69678188529333 13.584183826797865 0 0 -1
321 0 2 0.5897 9.421070555905272 2.628196822522456 14.195155586539338 0 0 0
319 0 1 -1.1794 8.853459139760385 1.8418594562111805 14.318071737382942 0 0 0
320 0 2 0.5897 8.182362603076083 1.9427820270707783 14.993251522320508 0 0 0
1601 0 2 0.5897 6.761407219203247 0.5153192036821413 15.96121447472693 0 0 0
1841 0 2 0.5897 9.993007671914341 0.1927374135419441 14.801053778917048 0 1 0
1600 0 1 -1.1794 6.968490153767838 1.3982510239879042 16.268069324017276 0 0 0
1612 0 1 -1.1794 3.8342874801118714 5.175710137967598 12.677524558074122 0 1 0
1614 0 2 0.5897 2.9077571673952463 5.520107697954547 12.538224823219926 0 1 0
2037 0 2 0.5897 5.279737446762829 4.41157447090479 14.041310567676852 0 0 -1
1092 0 2 0.5897 2.9972670731575306 4.887333480433838 14.953393141731087 0 0 0
303 0 2 0.5897 2.183725500678168 7.087696344184718 15.719750164590979 0 0 0
302 0 2 0.5897 3.755395575609848 6.83653688115235 15.946728340029015 0 0 0
301 0 1 -1.1794 3.0536841288575762 6.704821474380757 15.2757683264373 0 0 0
48 0 2 0.5897 2.8173092471364063 7.697171438264335 13.727094584803138 0 0 -1
580 0 1 -1.1794 0.9231914278414617 7.619865412606542 16.590682011396535 0 -1 0
2036 0 2 0.5897 6.330748533659952 4.296175087665237 15.135032546943174 0 0 -1
587 0 2 0.5897 5.276294494619348 7.9116570263447015 13.972014636337136 0 0 -1
300 0 2 0.5897 9.638055646397754 7.7381475739049685 12.595281240255666 0 -1 0
2093 0 2 0.5897 10.08075046306572 5.801048910333831 15.437264087078415 0 0 0
1784 0 2 0.5897 7.249944564127698 4.943401052171585 13.219517685948903 1 1 0
1783 0 1 -1.1794 7.863851670784234 5.649514817962465 12.897931010076311 0 1 0
2092 0 1 -1.1794 9.802695177540047 6.41235109688879 14.74344487979581 0 0 0
2094 0 2 0.5897 9.270220536428814 5.8953865364280045 14.145175445086 0 0 0
1561 0 1 -1.1794 11.127700602991853 4.690609646078669 16.567487704657438 0 0 -1
549 0 2 0.5897 7.291031956256517 5.840815853998731 16.60081637705281 0 0 -1