LAMMPS data file via write_data, version 23 Jun 2022, timestep = 15281000

2268 atoms
2 atom types

0.4528743710279173 46.997824628943576 xlo xhi
0 20.047001 ylo yhi
0 20.857 zlo zhi

Masses

1 1.008
2 15.999

Atoms # full

1062 0 2 0.5897 3.1114680942700024 1.6528335132835346 1.9422909945174511 0 1 -1
1060 0 1 -1.1794 3.6381944683932312 2.131744549986381 2.5950581724182236 0 1 -1
1061 0 2 0.5897 4.459060675689344 2.2822843122760883 2.144949133754377 0 1 -1
528 0 2 0.5897 2.4568822706520916 3.907994177237446 2.5695574172488227 0 2 -1
346 0 1 -1.1794 1.7909043564092288 0.9253655407711634 0.7562083913457055 0 1 2
101 0 2 0.5897 5.958160086967314 0.6670735178443578 2.172981930536002 0 2 0
348 0 2 0.5897 1.081453011349267 0.5266040989308546 1.2333789737086793 0 1 1
1002 0 2 0.5897 2.4491122648080905 0.12046364055743441 3.742057809615278 1 1 0
1735 0 1 -1.1794 6.4432179975157515 2.2701034997600935 1.5246386406133237 1 0 2
1737 0 2 0.5897 6.3513475109601565 3.1810810003058045 1.8689691659845147 1 0 2
1736 0 2 0.5897 6.717512894151114 2.2557038512904026 0.5593404739552365 1 0 2
1775 0 2 0.5897 8.936880678284266 2.7876711621004997 1.8390369816118939 0 -2 0
1776 0 2 0.5897 9.763232273055168 1.5124110736521403 1.235678693749493 0 -1 0
1774 0 1 -1.1794 9.702783728125079 2.1965819339930377 1.919613001124759 0 -1 0
647 0 2 0.5897 9.935507280611821 1.1214094846212266 3.2918601135923784 0 0 0
1302 0 2 0.5897 11.475708697398552 2.3897876399406535 1.9380646509334336 0 0 0
345 0 2 0.5897 11.310463054710725 3.738507187151709 0.6429060101852069 0 -1 -3
646 0 1 -1.1794 10.508031253685795 0.6288849281854978 3.956928253627124 0 0 -1
1088 0 2 0.5897 7.793443784245674 3.6878826401687848 3.8582354101193332 0 1 -2
526 0 1 -1.1794 1.9557789513586232 4.689816644269199 2.2542858090535596 0 2 -1
1550 0 2 0.5897 4.006142779386746 4.985961258267539 0.8297422382121928 0 1 0
2095 0 1 -1.1794 5.189477167223471 4.840937184384797 2.176848804632748 0 1 2
2097 0 2 0.5897 4.626340863979728 4.490584452556138 2.9092981266638893 0 1 2
1370 0 2 0.5897 2.9540156599889147 7.639716720678006 3.3365137096554265 0 0 1
391 0 1 -1.1794 1.5695128095596789 7.551721035852529 0.4958729514174628 0 1 -1
1369 0 1 -1.1794 2.8491103279173933 6.824648683825262 3.7872163760975703 0 0 1
1371 0 2 0.5897 2.9181663023039115 6.058705166405715 3.158024704949053 0 0 1
2096 0 2 0.5897 5.445768929363559 5.730279860818004 2.45906863803384 0 1 2
2137 0 1 -1.1794 6.133098514583007 7.9240621586561195 1.3026488760237551 0 2 0
392 0 2 0.5897 0.9796318494302781 7.402486140401648 1.3046615559507828 0 1 -1
527 0 2 0.5897 0.9904031801258153 4.523586643480892 2.319681745411937 0 2 -1
762 0 2 0.5897 9.866660645196324 4.194202789268668 3.5214467789391954 0 1 1
2082 0 2 0.5897 6.798785862393333 7.587931334288821 2.8756406056204167 0 0 0
2080 0 1 -1.1794 6.922674299072988 7.059123520849105 3.670409104458272 0 0 0
1788 0 2 0.5897 9.748210805838516 5.765015951074066 0.9487216758079751 0 1 0
1786 0 1 -1.1794 9.038288944956033 6.238132364207899 1.3759717015032336 0 1 0
1787 0 2 0.5897 8.704500000716036 5.673659075981261 2.1088511799081036 0 1 0
1087 0 1 -1.1794 8.04165861985093 4.431799701880646 3.259189559832777 0 1 -2
1646 0 2 0.5897 11.646633788016523 7.357193854625535 2.248659967294499 0 -2 -1
1645 0 1 -1.1794 12.0687022385267 6.932651875661202 2.9822288010453795 0 -2 -1
1089 0 2 0.5897 7.5157854543762666 5.200641764326652 3.599912135177716 0 1 -2
1647 0 2 0.5897 11.473369960898772 6.21930365009856 3.2624633208155696 0 -2 -1
760 0 1 -1.1794 10.733588282409364 4.576480159066337 3.7363418784546516 0 1 1
343 0 1 -1.1794 10.939281626485428 4.358808284735609 0.0074438772062550935 0 -1 -3
1511 0 2 0.5897 3.03112048911026 9.84189553957666 2.0800690264600834 1 1 0
1512 0 2 0.5897 2.881267618330281 8.623301550649082 1.0638553568554714 0 1 0
1510 0 1 -1.1794 3.4620190738897887 9.256294582814625 1.4156925246386118 1 1 0
2138 0 2 0.5897 5.330374713341085 8.475831673043674 1.447846108661022 0 2 0
883 0 1 -1.1794 1.2736734643213428 11.81775287537662 1.057113095877013 0 2 1
884 0 2 0.5897 2.230749847949027 11.82332000047944 1.2247822893013862 0 2 1
885 0 2 0.5897 0.708070517088761 11.58494655324678 1.8092699195461608 0 2 1
1903 0 1 -1.1794 3.1837846364396403 10.519590658181544 3.82264030235163 0 -1 1
283 0 1 -1.1794 5.727263153237839 11.6347092636761 3.9104121778589933 0 0 1
284 0 2 0.5897 6.02447981254035 11.923848182213652 3.0476150130933988 0 0 1
1904 0 2 0.5897 4.086364955802049 10.880727491017684 3.81674528182795 0 -1 1
614 0 2 0.5897 9.58705605212766 8.088894613221928 1.6184072995018461 0 0 0
613 0 1 -1.1794 10.211352475545391 8.774595161349152 1.5610321532128149 0 0 0
2139 0 2 0.5897 6.766160304204564 8.534811193747537 0.8036630192179713 0 2 0
615 0 2 0.5897 9.927913257527424 9.440117361541699 2.180077046906588 0 0 0
1588 0 1 -1.1794 10.299728927210527 11.367069516818246 3.1711276852025816 0 -1 1
1590 0 2 0.5897 10.818458711791436 11.378810524262201 2.355157914152196 0 -1 2
1589 0 2 0.5897 9.510974697662094 11.863227088773339 2.936548628211494 0 -1 1
2053 0 1 -1.1794 12.01470923110544 11.288031104867695 0.7828653407283546 0 -1 2
388 0 1 -1.1794 4.001553274926744 12.811171032678796 0.832403155673621 0 -1 0
390 0 2 0.5897 4.5226165063058374 13.197540013966414 0.08810864628018167 0 -1 0
383 0 2 0.5897 2.2716050002116477 15.266583078728132 1.9029701350227555 0 0 -2
382 0 1 -1.1794 3.1896092672098697 15.405664072947664 1.51162144953251 0 0 -2
1591 0 1 -1.1794 2.258155517989384 13.375006574722402 3.323354035003862 0 1 -1
384 0 2 0.5897 3.8067243703674025 15.65327204778217 2.2500433199459478 0 0 -2
389 0 2 0.5897 3.536866819867665 13.58537863649103 1.2302854431537356 0 -1 0
1593 0 2 0.5897 2.3488605114472056 12.399154777810098 3.4771025570850274 0 1 -1
497 0 2 0.5897 6.041482372913894 15.422805920858778 3.786796633312497 1 0 0
1592 0 2 0.5897 2.632313762652659 13.806945795769696 4.121899240190309 0 1 -1
66 0 2 0.5897 5.854919465212227 15.641020968913168 1.1751330855480022 0 1 0
595 0 1 -1.1794 0.5415123997879479 15.471605896457108 1.967255081963866 0 1 0
299 0 2 0.5897 11.985245739781115 15.58073569077001 3.9364122454543797 0 0 1
64 0 1 -1.1794 6.354545043532779 15.769602748502034 0.29697873686331 0 1 0
298 0 1 -1.1794 11.791886460414391 14.842372373742798 3.307127256863804 0 0 1
570 0 2 0.5897 8.320842624546817 12.592330410001148 1.5109037484094991 0 0 1
568 0 1 -1.1794 7.816929470342672 12.758379542477151 2.290831370550524 0 0 1
569 0 2 0.5897 8.095646047454565 13.577857878043227 2.634287942122271 0 0 1
1260 0 2 0.5897 10.28999404117921 15.39055150537587 0.6097555827922841 1 0 0
1086 0 2 0.5897 10.194189259928441 14.50767012464682 3.9146648602216683 0 1 0
1084 0 1 -1.1794 9.242863904759352 14.752685567978157 3.8375003453330567 0 1 0
1258 0 1 -1.1794 11.206001050595818 15.254230407359985 0.6729987684608418 1 0 0
1259 0 2 0.5897 11.302660774366212 14.995644549534624 1.6123233470355927 1 0 0
496 0 1 -1.1794 5.743547105051506 16.204481991105744 3.2187562990646854 1 0 0
100 0 1 -1.1794 5.943828439548051 19.7747440939544 2.526879608885024 0 1 0
102 0 2 0.5897 5.2022663236073585 19.329457145581404 2.127080282505155 0 1 0
1000 0 1 -1.1794 2.6469272619573787 19.316810788439046 3.3569680293745017 1 0 0
1610 0 2 0.5897 3.5100926273438775 17.522935362455662 1.1697612944003277 0 2 0
1611 0 2 0.5897 4.895598659030278 17.409444560523507 0.5033068070535303 0 2 0
12 0 2 0.5897 1.0341284097993235 17.41140029778591 1.086954371535755 0 -1 1
10 0 1 -1.1794 1.4539202311514592 18.148470749382376 0.6441198302796194 0 -1 1
1609 0 1 -1.1794 4.327534462492055 18.018622471277016 1.0004036024921446 0 2 0
1001 0 2 0.5897 2.418136594934631 19.39377218347067 2.3986363292491433 1 1 0
498 0 2 0.5897 5.172393481768134 16.686403077033713 3.8571784303401233 1 0 0
376 0 1 -1.1794 10.630477731171817 19.982955982822826 0.6771179515826216 0 -1 -1
378 0 2 0.5897 9.921753672370992 19.522891949174948 0.17069605621648629 0 -1 -1
1380 0 2 0.5897 7.526055178401829 18.517240734107354 2.2520270628859356 0 0 0
1378 0 1 -1.1794 8.03027040290236 17.666299657196074 2.370485849473744 0 0 0
91 0 1 -1.1794 10.652614693054295 17.822103934477113 2.311047636655107 0 0 2
92 0 2 0.5897 9.712800918952237 17.55794153559197 2.2586918131922746 0 0 2
93 0 2 0.5897 10.770633191082547 18.58178493664216 1.77363598532555 0 0 2
791 0 2 0.5897 7.778419360204804 18.446030854542464 0.5197916203548285 0 -4 2
1379 0 2 0.5897 7.3487608729773815 17.039800973503375 2.7481657573813467 0 0 0
648 0 2 0.5897 10.484777644762374 19.815802177199448 3.5530171984783414 0 -1 -1
891 0 2 0.5897 11.451075915276554 17.523280354954537 3.806981601618645 0 0 2
377 0 2 0.5897 11.351373916908862 20.010603923471358 0.013942544055639322 0 -1 -1
840 0 2 0.5897 3.144816221507326 2.0057915651974767 4.443487903608483 0 1 0
839 0 2 0.5897 3.179551424071692 1.0035729432946485 5.624727637788791 0 1 0
838 0 1 -1.1794 2.5532749123767333 1.4786401421578044 5.044884948789846 0 1 0
55 0 1 -1.1794 5.495300878228133 2.8316564608135124 6.337326247413533 0 2 1
57 0 2 0.5897 5.38731249538543 3.0416659049033434 7.271248076021242 0 2 1
842 0 2 0.5897 1.2566484316793771 2.245228195265516 6.050550431402648 0 1 0
2070 0 2 0.5897 5.047306058201904 1.0118349391210524 6.136537875291903 0 -1 1
1779 0 2 0.5897 0.9905263541976236 1.6314001135067744 8.18751876408659 0 0 0
841 0 1 -1.1794 0.6827141420373903 2.5939587723604336 6.695008879232364 0 1 0
843 0 2 0.5897 0.9262090300764276 3.502444255445568 6.878755933518428 0 1 0
2 0 2 0.5897 4.149283030569116 3.996298145886953 5.642030246475219 0 -1 0
2068 0 1 -1.1794 4.609287653635182 0.15016589825193705 6.246098194046973 0 -1 1
2069 0 2 0.5897 4.5293588932582995 0.0429322573949376 7.233179819606892 0 -1 1
56 0 2 0.5897 6.476224624155682 2.811775004739413 6.111447013057077 0 2 1
583 0 1 -1.1794 7.931841257718654 2.4551516069475796 5.256195076616558 0 1 0
584 0 2 0.5897 8.35897630790425 2.6448769749187644 6.060288146651117 0 1 0
585 0 2 0.5897 7.778154916351578 1.5005221737613301 5.183964481271129 0 1 0
1263 0 2 0.5897 10.342363330123364 0.8640258494160767 7.359133529710624 0 0 0
761 0 2 0.5897 11.294943576447363 3.87168956014997 4.17776691325966 0 1 1
1261 0 1 -1.1794 10.392953902676842 0.015503117901457307 6.837751028743404 0 0 -1
1262 0 2 0.5897 10.182515487104094 0.3179975726259794 5.943611107900017 0 1 -1
2239 0 1 -1.1794 9.008552923520508 2.637998216855076 7.849090891169046 1 2 -1
2240 0 2 0.5897 9.431548469437654 3.4294023173421464 8.217127656909845 1 2 -1
41 0 2 0.5897 11.70792795324824 1.7214791991858698 4.778865629689125 0 2 0
3 0 2 0.5897 3.1206186852211126 5.127464083051696 5.700797371078226 0 -1 0
1122 0 2 0.5897 0.9447467908317557 6.2129849956229615 4.722797833571164 0 1 1
775 0 1 -1.1794 1.6602328694631712 4.761438495606334 7.837043431521674 0 -2 2
1 0 1 -1.1794 3.48808022860192 4.462602691148287 5.100691717514246 0 -1 0
2089 0 1 -1.1794 5.024335589093578 7.781216887075894 5.5191219808940755 0 0 -1
2090 0 2 0.5897 4.291793248888042 7.3506991888054225 5.15583542202141 0 0 -1
777 0 2 0.5897 1.2377111140599135 5.43333667146246 7.280813552843794 0 -2 2
1120 0 1 -1.1794 0.49848911267440704 6.270514413034487 5.570875361431393 0 1 1
776 0 2 0.5897 2.458812171400453 5.170810922812586 8.150852882238222 0 -2 2
2081 0 2 0.5897 6.32055295085042 7.418253825923799 4.363981187765097 0 0 0
234 0 2 0.5897 6.42621845976894 6.908751696036108 6.446449943456314 1 0 0
232 0 1 -1.1794 6.880802385783533 6.336254171933552 7.109332569033333 1 0 0
233 0 2 0.5897 7.655330661339997 6.021863935324742 6.631330182599415 1 0 0
522 0 2 0.5897 10.318410765799813 5.578359727730924 6.778501241289728 0 -1 0
520 0 1 -1.1794 10.092591274872632 6.106587188215587 5.965270054173404 0 -1 0
521 0 2 0.5897 10.311905774644957 5.495371499345513 5.289608860863984 0 -1 0
350 0 2 0.5897 9.303063013243104 7.700728020543178 5.545291830425721 0 0 1
351 0 2 0.5897 8.224953584070171 7.776237599416631 4.563222939689269 0 0 1
341 0 2 0.5897 6.2975276297458205 5.237290231658601 8.26086448612549 0 0 -1
2091 0 2 0.5897 4.735985609374603 8.567947280934243 6.041333863890257 0 0 -1
387 0 2 0.5897 1.2918791706032828 8.067125552596227 5.621203357395951 0 0 -1
1905 0 2 0.5897 2.935169936138402 10.188535865833714 4.689956556060226 0 -1 1
385 0 1 -1.1794 1.564114648536021 8.975501542920487 5.689030487870612 0 0 -1
1811 0 2 0.5897 5.569197561809402 10.527876282465016 6.427715926573778 0 0 1
2267 0 2 0.5897 3.3659297320573596 11.095243534276023 6.718699468210186 1 0 1
1810 0 1 -1.1794 4.777205324654428 10.138257192328865 6.820895931455 0 0 1
1812 0 2 0.5897 5.015981755990388 9.981504515923588 7.77174365760266 0 0 1
386 0 2 0.5897 2.0360868886436476 8.948932578855459 6.540987831685655 0 0 -1
2266 0 1 -1.1794 2.5907618351179003 11.60742407442378 7.070494918851244 1 0 1
2268 0 2 0.5897 1.9145772628242814 11.52618835175884 6.406372390571978 1 0 1
1023 0 2 0.5897 11.605534601739265 9.706156864033101 4.777013377691199 0 1 0
285 0 2 0.5897 6.523031933661044 11.321560153066807 4.451002887862184 0 0 1
349 0 1 -1.1794 8.645373007061687 8.340699520444563 5.230685799881419 0 0 1
1313 0 2 0.5897 8.023409032863379 11.43691832348025 6.042341006094696 0 2 0
1312 0 1 -1.1794 7.33435634176784 10.711375404138508 6.012340613656544 0 2 0
1314 0 2 0.5897 7.79788256277224 9.934805515419622 5.732941580974888 0 2 0
2027 0 2 0.5897 10.16353350472091 9.462171832406822 6.164361676867088 0 -1 0
2026 0 1 -1.1794 10.654410250029809 9.967067787581337 6.8197744213664935 0 -1 0
2028 0 2 0.5897 11.463344453675733 9.518365072982421 7.017883123592688 0 -1 0
1353 0 2 0.5897 9.72562635142252 10.85910733572742 8.066096986227416 0 0 -2
1389 0 2 0.5897 11.242773623680295 11.890352455387038 4.616324858018736 0 2 0
1352 0 2 0.5897 8.413511030767307 11.564914972998665 8.271138778242241 0 0 -2
1022 0 2 0.5897 11.984735842735942 8.303240178265234 4.218358568180973 0 1 0
1561 0 1 -1.1794 0.6240611593285706 14.107811476459263 7.044930610757388 0 -1 -1
1538 0 2 0.5897 5.734787315766059 13.217776632545728 4.812450953914047 0 1 1
1539 0 2 0.5897 4.892387229997045 14.139534481417822 5.679731374146742 0 1 1
1537 0 1 -1.1794 5.73195825166564 14.089218687605944 5.239739021160831 0 1 1
1485 0 2 0.5897 2.8950289003752685 15.68834993313711 5.436448078540684 1 0 -1
1483 0 1 -1.1794 2.83759745254575 14.792681322927903 5.716563321349507 1 0 -1
1107 0 2 0.5897 3.097286294895305 13.55861295553932 8.006964449521663 0 -1 0
18 0 2 0.5897 0.6210399419163102 12.282618722875318 4.461407783728137 0 -1 -1
1484 0 2 0.5897 2.1278667166214493 14.744116422033509 6.3344712578220355 1 0 -1
1563 0 2 0.5897 0.6055915449908067 13.283711573737063 6.519179193450085 0 -1 -1
1559 0 2 0.5897 6.883258651020524 14.243346637708195 6.626253540001715 0 1 1
1558 0 1 -1.1794 7.339387247899306 14.589575139843916 7.425748430151641 0 1 1
258 0 2 0.5897 9.979158470755136 12.724637575691759 6.321898747551416 0 1 1
1388 0 2 0.5897 11.923711417296706 13.136602313527222 5.057620783179703 0 2 0
1387 0 1 -1.1794 11.718552457493091 12.279703420755064 5.39498136019939 0 2 0
256 0 1 -1.1794 9.014200654503213 12.86062010298152 6.311194513091642 0 1 1
257 0 2 0.5897 8.695665529307657 13.527227034652991 6.915564279924767 0 1 1
1085 0 2 0.5897 8.938996090980128 14.342269685476207 4.698724952479475 0 1 0
1560 0 2 0.5897 6.985572966362136 14.102045219946556 8.148792653428506 0 1 1
1056 0 2 0.5897 0.7169067058257373 18.846483533617818 5.818977091073935 0 -1 0
1896 0 2 0.5897 3.675989567871948 18.0858785255382 4.227307120435899 0 -1 -1
632 0 2 0.5897 3.8942567371949974 16.14688104905106 7.328540476918037 0 -2 0
1894 0 1 -1.1794 4.091344876243591 17.343977862725716 4.704365238339563 0 -1 -1
1895 0 2 0.5897 4.1440660931578925 17.465193623507332 5.671677976683506 0 -1 -1
1055 0 2 0.5897 0.9703279434643036 18.61829766999284 4.340945668427538 0 -1 0
1987 0 1 -1.1794 1.5669831456460215 18.891860653037995 7.732826822033584 1 0 1
1989 0 2 0.5897 2.4456803919667855 18.594261970367654 7.43891337158194 1 0 1
633 0 2 0.5897 4.852080348509895 17.238102499703537 7.606128501516571 0 -2 0
631 0 1 -1.1794 3.9176233647741188 17.123114012557757 7.270216850711395 0 -2 0
1988 0 2 0.5897 1.7659075473767851 19.76754335093044 8.146737571170952 1 0 1
2112 0 2 0.5897 6.63696190731534 19.757422813618717 4.360895498686684 0 2 0
2110 0 1 -1.1794 7.332152316625578 19.704149494736946 5.057132225762512 0 2 0
1547 0 2 0.5897 6.809306109863097 16.059680013768673 7.792606641288135 0 0 -1
1546 0 1 -1.1794 6.467419298062587 17.005778162278162 7.915137931723525 0 0 -1
2052 0 2 0.5897 11.309050039471984 18.51297937022895 7.0379269836272424 0 1 0
1806 0 2 0.5897 9.064216383421014 16.7255810286888 4.598127786440728 0 -3 1
817 0 1 -1.1794 9.673045708858249 16.330212571817082 8.050556835476463 0 0 -1
2111 0 2 0.5897 6.748162639355698 19.50023716762909 5.814567712935881 0 2 0
1805 0 2 0.5897 8.345028471625039 18.06329829811442 5.153648645447184 0 -3 1
1804 0 1 -1.1794 8.778496482078816 17.196171104511752 5.385692546206805 0 -3 1
1095 0 2 0.5897 8.704909872008752 19.241945895853775 7.289503406320814 0 0 1
818 0 2 0.5897 9.343094968385302 16.440872517602156 7.1260341439349615 0 0 -1
1093 0 1 -1.1794 7.826951889488092 19.318765103072202 7.689368585896192 0 0 1
1548 0 2 0.5897 7.137321601805723 17.685591315226528 7.772578863362392 0 0 -1
2051 0 2 0.5897 11.384752536093345 17.055582569597632 7.472193787573859 0 1 0
2050 0 1 -1.1794 11.969744034701597 17.806039423787222 7.101539001791898 0 1 0
890 0 2 0.5897 12.086131896059962 17.654873074020447 5.227921720988306 0 0 2
600 0 2 0.5897 3.0605835480553525 2.3885187101009975 8.952468637233375 0 -1 0
598 0 1 -1.1794 3.9564230740087707 2.5508092609823407 8.687378768078839 0 -1 0
1778 0 2 0.5897 0.6047731910570275 1.0034894948542805 9.478851843617571 0 0 0
599 0 2 0.5897 4.226293375421309 3.329931185203717 9.21472487868661 0 -1 0
1777 0 1 -1.1794 1.4103075029539933 1.267666565776295 8.985978038673881 0 0 0
1570 0 1 -1.1794 3.1660287529027427 3.786013440041899 11.688943859845114 0 0 0
1572 0 2 0.5897 2.259312221100474 3.8393003032906696 12.009612014103118 0 0 0
2033 0 2 0.5897 3.737588039159783 1.8879515834472496 11.725046500775278 0 -1 -1
2032 0 1 -1.1794 3.96898697627325 1.0704772969824548 12.163371437085466 0 -1 -1
1014 0 2 0.5897 4.508200485481862 0.7974158342540428 9.055305284804007 0 0 1
2034 0 2 0.5897 3.2058448515382145 0.6532496036596798 12.451104082360104 0 -1 -1
773 0 2 0.5897 5.862331786849051 0.9456326914337008 12.1362205222356 0 1 -1
2241 0 2 0.5897 8.502641981190806 2.2747294685729993 8.582723102092196 1 2 -1
1128 0 2 0.5897 9.229698637773195 2.5641484036033373 11.10357324063444 0 2 3
1126 0 1 -1.1794 9.996653006917997 2.2621134028969188 11.583691929190623 0 2 3
1400 0 2 0.5897 11.31214133486404 1.1425928782555002 10.574685794835128 0 0 -1
305 0 2 0.5897 7.436321588281904 1.1768356528127124 10.622563002005537 0 -1 -1
304 0 1 -1.1794 7.930542877445666 1.01640819649686 9.847284574546087 0 -1 -1
1127 0 2 0.5897 9.733224427795166 2.1710773701287063 12.476024341408156 0 2 3
1399 0 1 -1.1794 11.53780166895941 0.5132716650316549 9.887595629556342 0 0 -1
1134 0 2 0.5897 7.332052955413055 3.938969863490902 11.533811668569095 0 1 0
306 0 2 0.5897 8.879178968720309 0.8988985640992355 10.093224523662458 0 -1 -1
1132 0 1 -1.1794 7.893218745002568 3.9124559303651876 10.712643850879275 0 1 0
772 0 1 -1.1794 6.754309187797177 1.24829156418929 12.139920079451132 0 1 -1
1329 0 2 0.5897 11.90837091765657 2.9464269926111935 11.806468255850604 0 0 -1
1571 0 2 0.5897 3.2261089813550337 4.448959826713404 10.977032915280033 0 0 0
81 0 2 0.5897 4.416144424448234 5.537313150029686 9.523834578151138 0 3 -1
79 0 1 -1.1794 3.4461670365039274 5.514345445005191 9.655259424167797 0 3 -1
80 0 2 0.5897 3.2763684676018365 6.421368592948001 9.912025113573574 0 3 -1
1863 0 2 0.5897 2.349980899485916 7.71115689041063 12.433935909784298 0 -1 1
1861 0 1 -1.1794 3.1566798705978414 7.681018914774824 11.929606298678571 0 -1 1
1862 0 2 0.5897 3.677432921391635 7.006551202725675 12.395958154619489 0 -1 1
340 0 1 -1.1794 5.93634582432234 4.751451220857623 8.991697545450911 0 0 -1
887 0 2 0.5897 1.271789179173488 7.844434177525856 8.734573815430569 0 -1 0
342 0 2 0.5897 6.665974916039357 4.334330679732017 9.514474217234676 0 0 -1
2008 0 1 -1.1794 6.676384301646033 6.769527124923714 12.115360465712103 1 0 0
288 0 2 0.5897 11.42108800328717 4.937079793252014 8.737181015773263 0 1 0
1133 0 2 0.5897 8.368591185554287 4.7186931314304035 10.73783582971446 0 1 0
1545 0 2 0.5897 6.987446319682568 7.205486859517383 10.368512027007114 0 1 -1
286 0 1 -1.1794 10.474839435114639 4.998848025546315 8.381790412756304 0 1 0
1544 0 2 0.5897 7.188800559676907 7.078777190416688 8.75693422216479 0 1 -1
287 0 2 0.5897 9.952706371189375 5.548620456175452 9.00963777419982 0 1 0
63 0 2 0.5897 10.598771515772675 6.008288122622139 11.40873308670123 0 -2 -1
61 0 1 -1.1794 9.64347374834581 5.904071528607167 11.154358667398638 0 -2 -1
1543 0 1 -1.1794 7.2265449831129 7.653866936623475 9.56747670479331 0 1 -1
1059 0 2 0.5897 11.396345957836715 7.885802249563989 9.730695327296669 0 2 -2
62 0 2 0.5897 9.211590441722636 6.190270895059676 11.942230795483507 0 -2 -1
888 0 2 0.5897 2.0010612829955976 9.087062155781789 8.761830292796091 0 -1 0
1520 0 2 0.5897 0.6885403985116052 10.901701655275888 9.568904504681178 0 -2 1
886 0 1 -1.1794 2.066004468524116 8.210908021602554 8.393132305128363 0 -1 0
1521 0 2 0.5897 2.0249242382132753 11.147864492853344 8.604661215755383 0 -3 1
1330 0 1 -1.1794 5.714446595325804 10.149250129639677 9.467208719369411 0 0 -1
1331 0 2 0.5897 4.907463119917083 10.031342713526888 10.048104593621918 0 0 -1
545 0 2 0.5897 3.554169218431106 9.117494895344786 11.372947275311887 0 -1 0
544 0 1 -1.1794 3.7026099414935767 10.052414569011237 11.131637814921518 0 -2 0
546 0 2 0.5897 2.938469071212661 10.359374133800207 10.588078650271362 0 -2 0
1519 0 1 -1.1794 1.6853665947388123 11.153993055066962 9.502873927122705 0 -2 1
1844 0 2 0.5897 6.0675382237543705 11.87438490065128 9.45985607770318 0 1 0
1351 0 1 -1.1794 9.235311444753604 11.325216104395704 8.746959288085682 0 0 -2
578 0 2 0.5897 9.036120938033067 8.369918757202074 10.037498026390763 0 0 1
1332 0 2 0.5897 6.393659192207352 9.495026930983796 9.616998726449117 0 0 -1
1637 0 2 0.5897 10.814877065356484 8.944218753342527 11.935365048971255 0 -1 -1
579 0 2 0.5897 9.580480628801256 9.875456006375058 10.135509925471828 0 0 1
577 0 1 -1.1794 9.782013522523448 8.92672279624157 10.379642188421757 0 0 1
1075 0 1 -1.1794 8.271055460853312 11.171935219616362 11.677885126299653 0 -1 0
1077 0 2 0.5897 7.990517811068672 10.244976524027148 11.793103214709634 0 -1 0
1821 0 2 0.5897 11.384125681895828 11.600246233151186 10.366267964800533 0 1 -1
1076 0 2 0.5897 7.495775805021895 11.780368519890061 11.888249231432349 0 -1 0
1820 0 2 0.5897 10.14671535448227 11.79154415155533 11.15140602208208 0 1 -1
1638 0 2 0.5897 11.607287756501814 10.082798328492585 12.323752039674025 0 -1 -1
1819 0 1 -1.1794 11.09223232847203 11.755732955928645 11.289338173005953 0 1 -1
1105 0 1 -1.1794 3.614411046241985 14.15966702599725 8.572874273284334 0 -1 0
2144 0 2 0.5897 1.3078377451741643 12.11966696097533 11.329187215569371 0 0 1
1106 0 2 0.5897 4.372545910310084 13.61061864652887 8.82814869579248 0 -1 0
1285 0 1 -1.1794 1.6466226077218602 15.972558979082185 9.638879956641045 0 -1 1
1287 0 2 0.5897 2.3384843038093788 15.550078553315943 9.126639932041893 0 -1 1
799 0 1 -1.1794 3.146336394397849 14.357887051275688 11.754798772167511 0 1 1
800 0 2 0.5897 2.3803715513795445 14.963224542576146 11.8997212252678 0 1 1
801 0 2 0.5897 3.437435732814922 14.398028244029025 10.81122885475093 0 2 1
2143 0 1 -1.1794 0.9252023415527253 12.267391741235167 12.18095473547575 0 0 1
1843 0 1 -1.1794 6.1269129809511975 12.86210924872026 9.306656769559243 0 1 0
819 0 2 0.5897 9.516634016793315 15.437011104735417 8.401502501882694 0 0 -1
1845 0 2 0.5897 6.324364128705131 13.236479780215467 10.182354554697719 0 1 0
317 0 2 0.5897 9.546650584148537 12.951901777116749 9.249164247658994 0 -1 -1
316 0 1 -1.1794 9.664937647778544 13.881317614951662 9.409865416783843 0 -1 -1
318 0 2 0.5897 10.645925392749096 13.95326088004216 9.573478506216231 0 -1 -1
2109 0 2 0.5897 9.269103645749114 14.831615029722853 11.029487293220283 0 0 -1
2107 0 1 -1.1794 8.776995968028972 15.30942061352452 11.800960490619618 0 0 -1
1606 0 1 -1.1794 6.728931858800391 13.491189515584178 12.257177426317897 0 -2 1
1607 0 2 0.5897 7.266789384038917 14.301540451353638 12.321943914128013 0 -2 1
2108 0 2 0.5897 9.402890149350105 15.900949990895526 12.304275715684243 0 0 -1
1286 0 2 0.5897 1.2839555834258252 16.640287383187264 8.972647779883872 0 -1 1
338 0 2 0.5897 2.496117317477153 17.61545307561813 10.368791443773913 0 -1 1
1012 0 1 -1.1794 4.449089640136538 19.884031345474067 8.879373578362674 0 -1 1
1013 0 2 0.5897 5.092514414894332 19.318571914909423 9.357401334155208 1 -1 1
245 0 2 0.5897 1.078464179362321 19.44073071800874 11.852619799426014 1 -1 0
339 0 2 0.5897 3.0732579137173937 19.065899367842896 10.342767620701611 0 -1 1
337 0 1 -1.1794 2.776223279337459 18.390719466940816 10.948918345951197 0 -1 1
1099 0 1 -1.1794 6.114088201448333 18.35928406827985 10.16187757479265 0 1 -1
1094 0 2 0.5897 7.755089903189877 19.9201563337865 8.469421392905517 0 0 1
1100 0 2 0.5897 6.321759430284416 17.625005089535314 9.608291811536052 0 1 -1
1101 0 2 0.5897 6.460405044001139 18.154435021610922 11.017114124377292 0 1 -1
1401 0 2 0.5897 11.060540391901261 19.751841521796994 10.098079391135393 0 -1 -1
2129 0 2 0.5897 9.541729178346195 17.856721960094205 9.41582340115321 0 0 0
2130 0 2 0.5897 10.809228715887485 17.448807441177088 10.131308156841188 0 0 0
2128 0 1 -1.1794 10.194585261335813 18.22263539291271 10.022014093606892 0 0 0
821 0 2 0.5897 0.7338847866280525 1.7641558749439281 12.723485302410236 0 0 0
90 0 2 0.5897 0.9470154518999383 3.5392587599740613 14.06163455597849 0 0 0
561 0 2 0.5897 4.169839967164306 1.9188143352936546 14.8370586180867 0 1 -1
559 0 1 -1.1794 3.927379068711396 2.8660091072656595 15.01740375557227 0 1 -1
1356 0 2 0.5897 2.2733999354147456 1.084049555918163 15.216915372684996 0 1 1
560 0 2 0.5897 4.581261016813571 3.1072369673931983 15.724200612849993 0 1 -1
1354 0 1 -1.1794 1.8367218458940364 0.8563883324820628 16.03614032868975 0 1 1
2016 0 2 0.5897 5.752955347030671 0.3006611603943955 15.307534684582992 1 0 -1
1355 0 2 0.5897 2.291443112419867 0.054969363290189414 16.336150519337306 0 1 1
2014 0 1 -1.1794 4.787951370898303 0.14889266866015716 15.107930784462692 1 0 -1
88 0 1 -1.1794 1.1424847818411972 3.997661063670212 14.877097758860812 0 0 0
89 0 2 0.5897 2.0489420468937154 3.8119327947163253 15.187291561253103 0 0 0
820 0 1 -1.1794 0.5234282514940725 2.7205325160171077 12.718271295819989 0 0 0
774 0 2 0.5897 6.692989260888842 2.066816921425634 12.675027843644019 0 1 -1
1835 0 2 0.5897 8.045228359694399 0.20332830886065473 12.766876781383901 0 1 0
1081 0 1 -1.1794 7.370580061342383 0.4639464578541247 15.938614664979594 0 0 -1
638 0 2 0.5897 11.158454135302517 2.9162501952890008 14.231783819222006 0 0 0
637 0 1 -1.1794 10.302723917288763 3.2125736115624997 13.898463683430995 0 0 0
1587 0 2 0.5897 9.064402952545827 3.0598428908719395 15.258857941856817 0 -1 1
1082 0 2 0.5897 7.765819498731579 1.3603365587361234 15.841474064389187 0 0 -1
1585 0 1 -1.1794 8.280563779419303 3.033357388691314 15.892422299211704 0 -1 1
333 0 2 0.5897 7.477286846516201 3.5118424731591324 14.335966631002034 0 2 -1
331 0 1 -1.1794 7.003524213981496 3.748806992680039 13.506436994676811 0 2 -1
2009 0 2 0.5897 5.998327826724075 6.294824838892803 12.52485108732531 1 0 0
1635 0 2 0.5897 4.156379416757094 4.628722693959517 12.904356279479055 0 1 -2
1026 0 2 0.5897 1.4804801914352752 5.908324428632412 14.384707619889543 0 -1 0
332 0 2 0.5897 6.242827416270741 4.280904040451723 13.714556342097524 0 2 -1
1633 0 1 -1.1794 4.684084733687714 5.384359415531591 13.24059735297876 0 1 -2
1634 0 2 0.5897 4.336958187166237 5.710053120001761 14.064787847291832 0 1 -2
1771 0 1 -1.1794 4.01509006345692 6.719401745437285 15.575278039215574 0 -1 0
1772 0 2 0.5897 4.955864311743008 6.749019049723713 15.845869397795237 0 -1 0
1830 0 2 0.5897 3.4651602300116564 8.012584422457461 14.769112062972257 0 -2 0
1773 0 2 0.5897 3.539964456846093 6.172232989340982 16.237802192596266 0 -1 0
1025 0 2 0.5897 0.9163516435649517 7.298698234397536 14.63996885650584 0 -1 0
1024 0 1 -1.1794 1.1816250898350753 6.7247524621927255 13.90756050393128 0 -1 0
1816 0 1 -1.1794 6.780482774932767 6.882072035247933 15.468704879548634 0 2 0
1818 0 2 0.5897 6.945653937643404 7.635845059456887 14.900173751018393 0 2 0
2010 0 2 0.5897 6.812391271827612 7.593181723589278 12.515633247503331 0 0 0
639 0 2 0.5897 10.35205315548391 4.1834017790138125 13.851915000152312 0 0 0
1078 0 1 -1.1794 9.316087422062173 5.682712243833572 14.140035551993499 0 0 -1
1079 0 2 0.5897 8.332661189675775 5.942317143600368 14.307670133667957 0 0 -1
1817 0 2 0.5897 7.445370970067156 6.894079027071265 16.165534172493963 0 2 0
1883 0 2 0.5897 11.895743588084084 5.237310207096886 16.435084621557394 0 0 0
1080 0 2 0.5897 9.786479161751185 6.470809082279518 14.48574704283826 0 0 -1
566 0 2 0.5897 11.484912053264885 7.079416777533718 14.794450267348143 0 -1 -3
1393 0 1 -1.1794 0.548842343086424 10.096336747889774 13.62596639455306 0 1 0
1395 0 2 0.5897 0.6962662798121323 10.994392673871461 13.299495030082152 0 1 0
1829 0 2 0.5897 2.821634672474154 9.351150425383148 15.408189558390957 0 -2 0
1828 0 1 -1.1794 2.956823882421613 8.842477593653374 14.613148230230324 0 -2 0
882 0 2 0.5897 4.382093295120564 10.668408462091447 12.593839155181715 0 2 -1
1342 0 1 -1.1794 1.711372147107561 11.222270015479843 15.717871783006812 0 -1 0
880 0 1 -1.1794 4.677485537294716 10.576287797431494 13.503525719789856 0 2 -1
881 0 2 0.5897 4.098019196500449 9.887006164760063 13.864212157775798 0 2 -1
50 0 2 0.5897 6.046937137347594 9.703400122413692 13.649668407066581 0 1 -1