LAMMPS data file via write_data, version 23 Jun 2022, timestep = 36287000

2268 atoms
2 atom types

0.7427140126551137 46.70798498728719 xlo xhi
0 20.047001 ylo yhi
0 20.857 zlo zhi

Masses

1 1.008
2 15.999

Atoms # full

2106 0 2 0.5897 4.389884693856104 0.87007703923608 2.5814319365000897 0 -3 -1
2105 0 2 0.5897 3.25417358113726 1.3899156636207672 1.686819120904092 0 -4 -1
2104 0 1 -1.1794 3.6217212427794827 1.4227221970231771 2.5820305490392323 0 -4 -1
1303 0 1 -1.1794 6.302531556101594 0.8557951417860545 3.333292279824171 0 -2 0
986 0 2 0.5897 1.0869091231671246 3.2689371946387538 3.1076676125810203 1 -1 1
767 0 2 0.5897 3.954631650711465 3.5710884094782265 2.8631419808090603 0 2 1
1304 0 2 0.5897 6.466871152796289 1.8428676254620957 3.183117295362043 0 -2 0
779 0 2 0.5897 6.460555909792457 3.675285237922425 0.5522473473487945 0 1 3
2049 0 2 0.5897 1.9599143009107032 3.6688241758983033 0.9478067378249364 0 0 0
768 0 2 0.5897 4.312209007414738 3.697247117834669 1.4038879411350098 0 2 1
586 0 1 -1.1794 2.7211443710614827 1.189875799153684 0.07840366723696267 0 0 -1
534 0 2 0.5897 10.022154570625613 1.429162878470955 0.9358450223503216 0 1 0
533 0 2 0.5897 8.841560579945272 2.1345200355662253 1.547462485948027 0 1 0
1780 0 1 -1.1794 7.585354498955684 3.577697697159816 1.6999321949361526 0 -1 1
1781 0 2 0.5897 7.135466310816305 3.708024444636623 2.5320304368129642 0 -1 1
532 0 1 -1.1794 9.081642630995706 1.2708516296606458 1.1404527623913034 0 1 0
1110 0 2 0.5897 9.29196046810095 1.0815643133339918 4.053492129677227 0 2 2
514 0 1 -1.1794 11.717529963242626 1.945201669802224 0.6918716978899236 0 0 0
516 0 2 0.5897 11.447005555196114 2.8282926471303433 0.32428045763573843 0 0 0
766 0 1 -1.1794 4.229095313712167 4.211684861908803 2.210361528182603 0 2 1
74 0 2 0.5897 2.6437891248650582 5.6425288568994665 2.052350909662961 0 1 2
1734 0 2 0.5897 5.95766449628857 6.603976904047412 1.389592314663946 1 0 1
1567 0 1 -1.1794 5.4420886270486 6.333119478231781 3.310273936422634 0 1 1
1568 0 2 0.5897 4.895788126692063 5.6254530604576205 2.983702603752978 0 1 1
73 0 1 -1.1794 2.0503464016797173 6.090517386170827 2.670118312072821 0 1 2
1569 0 2 0.5897 4.927436290886995 7.108142307540641 3.0622597912171483 0 1 1
75 0 2 0.5897 2.046047945360585 5.5146186097731995 3.492623593240438 0 1 2
2047 0 1 -1.1794 2.094068160947166 4.1082070105378765 0.11045328739991168 0 0 0
2111 0 2 0.5897 1.5500249517442417 7.901506246295202 3.148265872784189 0 3 -1
1732 0 1 -1.1794 5.886721507418322 6.902142949948243 0.475979283236836 1 0 1
132 0 2 0.5897 2.6161252705546856 7.9918173193323385 0.687559050903259 0 -1 0
1733 0 2 0.5897 5.044643988330243 6.523836339925225 0.10143563594924478 1 0 1
1782 0 2 0.5897 8.055145077129612 4.413850322006815 1.557982311938667 0 -1 1
2016 0 2 0.5897 8.915440084737146 5.824491967550682 3.9760009172454156 1 1 -1
2238 0 2 0.5897 10.097363762311042 5.944154668274246 2.077230822962481 1 0 1
2236 0 1 -1.1794 9.137813203911731 5.972292309889836 1.940199776703814 1 0 1
2237 0 2 0.5897 8.94461011158573 6.904343552597132 1.92387792075865 1 0 1
87 0 2 0.5897 11.760689722572021 6.092434254466195 3.5541477147436726 0 -1 0
1637 0 2 0.5897 7.240567870952505 7.78976378762896 3.194131800158205 0 -1 0
86 0 2 0.5897 11.726751366028994 4.626960084114888 3.595099892376242 0 -1 0
85 0 1 -1.1794 11.691320843107135 5.341148429947973 2.970799878946974 0 -1 0
1348 0 1 -1.1794 10.451311312710097 7.962051303617817 3.8749896248192424 0 0 0
1022 0 2 0.5897 8.879759764274514 6.342407193012352 0.05112443776777033 0 2 2
1114 0 1 -1.1794 10.651742162893743 7.897315163022326 0.6464729151810537 0 -1 1
749 0 2 0.5897 3.7626651044395905 9.002160041643947 2.186549242060905 1 0 0
821 0 2 0.5897 6.226709351551934 10.11470881847492 3.728080503960538 0 -1 0
609 0 2 0.5897 1.7501093118579982 10.433921786414968 1.3985072023959362 0 1 1
748 0 1 -1.1794 4.328245000015026 8.824663167798006 2.9228171742842086 1 0 0
750 0 2 0.5897 3.7920461743329414 8.943968167987057 3.643291056473864 0 0 0
1292 0 2 0.5897 6.145976648358443 10.127819736125996 0.8937883931162409 0 -1 0
607 0 1 -1.1794 1.2508809301748482 11.282786778016396 1.1359246960643887 0 1 1
130 0 1 -1.1794 2.7880310286471093 8.9364368384594 0.71710473617351 0 -1 0
2110 0 1 -1.1794 1.1266151214639648 8.711248737687256 3.4047508223881224 0 3 -1
1531 0 1 -1.1794 5.502014031904026 11.668575058816435 1.0512200661895437 0 3 -2
1532 0 2 0.5897 5.506744788228639 11.929560366483463 2.0174102249678016 0 3 -2
1622 0 2 0.5897 2.1820299640953076 11.662981651627627 4.070309919769593 0 2 0
1293 0 2 0.5897 6.33722631475647 8.575032829929798 0.37225291630039814 0 -1 0
822 0 2 0.5897 7.620167701418552 10.762792119097027 3.815934027191911 0 -1 0
1350 0 2 0.5897 9.611075908970129 8.198158982571691 3.471772823819179 0 0 0
1636 0 1 -1.1794 7.992151061710975 8.38292072184084 2.9100391213403434 0 -1 0
1638 0 2 0.5897 7.6829495803997805 8.914802565415265 2.1289494149316512 0 -1 0
1370 0 2 0.5897 10.048540960165859 9.586890417559006 0.9418973931691358 0 0 0
1371 0 2 0.5897 9.671929462166933 10.901303920278494 1.9047920736300699 0 0 0
1369 0 1 -1.1794 10.090572893245236 10.606912760105828 1.0448102693102215 0 0 0
1115 0 2 0.5897 11.532662715106769 8.046169403474224 1.0367712956279858 0 -1 1
1291 0 1 -1.1794 6.834711019973188 9.425376008994325 0.6216771682793886 0 -1 0
820 0 1 -1.1794 6.701651527159027 10.964953086038625 3.5944955151700624 0 -1 0
2119 0 1 -1.1794 9.385052531307778 11.495861344291994 3.9068483285049376 0 2 0
51 0 2 0.5897 12.057723113725231 8.63823187161619 3.024593842680636 0 0 0
2006 0 2 0.5897 1.7213476799413976 12.663610150004741 2.3188511182683724 1 0 -1
2005 0 1 -1.1794 1.8839530871641657 13.41425729935707 2.9246210151927525 1 0 -1
1810 0 1 -1.1794 4.207800537818307 14.656707468610604 3.0409102590651527 0 -1 0
2007 0 2 0.5897 2.8168420979438302 13.788905925129885 2.9281478341606073 1 0 -1
1812 0 2 0.5897 4.774177481746168 14.749694254706775 2.2422878993398023 0 -1 0
1981 0 1 -1.1794 2.431068293192827 15.2849691901303 0.7723777865452881 1 0 1
324 0 2 0.5897 2.95906169836369 13.682935304418336 0.2222297442650053 0 -1 3
1533 0 2 0.5897 4.718324027802023 12.111572478634027 0.6619544125987226 1 3 -2
323 0 2 0.5897 2.4346081121939838 12.168631684962243 0.24457392418252297 0 -1 3
1983 0 2 0.5897 1.6283067303965701 15.264744041716574 1.2553145590723684 1 0 1
1811 0 2 0.5897 4.754690928965452 14.11460378013596 3.603024681864511 0 -1 0
1239 0 2 0.5897 6.342842665818055 14.276443459948762 0.9158936485368595 1 1 1
1237 0 1 -1.1794 5.755509833562698 14.955158727351082 0.6145466015132658 1 1 1
1378 0 1 -1.1794 10.983910228314407 13.68243736199869 0.6608613583101719 0 2 0
1297 0 1 -1.1794 7.246757159370252 13.952116810505673 3.1237504813486128 0 0 1
1299 0 2 0.5897 7.272859625247603 13.482207771491327 3.983455125280773 0 0 1
593 0 2 0.5897 7.841135352892428 13.297146730313745 1.4858046371872184 0 -2 -2
1298 0 2 0.5897 7.762966820623304 14.72868932317477 3.247013169654575 0 0 1
1379 0 2 0.5897 10.041599904427583 13.866662989263551 0.3399550860630785 0 2 0
1560 0 2 0.5897 11.007624728099644 14.592897949109759 3.8843032935087947 0 0 1
592 0 1 -1.1794 8.170556635543424 13.417778973039624 0.6332197100910331 0 -1 -2
1559 0 2 0.5897 11.945873326835303 13.33026697308028 3.896341337162858 0 0 1
1380 0 2 0.5897 10.899372967865748 12.82738103781833 1.060842218895423 0 2 0
594 0 2 0.5897 7.8296391145413775 12.64061206331747 0.22175573926056688 0 -1 -2
2120 0 2 0.5897 9.916239345860719 12.24010594990467 4.071803914670925 0 2 0
1355 0 2 0.5897 3.452023768856751 17.450164460216776 1.2545107429978353 0 1 1
1356 0 2 0.5897 4.6445369885753305 16.503929774482128 0.8215558565235108 0 1 1
1354 0 1 -1.1794 4.471798548415989 17.472659245015556 1.0417317949648262 0 1 1
833 0 2 0.5897 1.6581405926684252 19.448617319532236 2.1134526998265373 0 -1 1
832 0 1 -1.1794 2.1531334826323656 18.65884100708584 1.9132390973110143 0 -1 1
834 0 2 0.5897 2.447328473832795 18.305975312395645 2.7454250254937214 0 -1 1
1358 0 2 0.5897 5.5221091779451505 17.50817207933816 2.9068127142345146 0 1 -1
1556 0 2 0.5897 3.2763834559994445 16.380442409489508 3.9532704593641346 0 -2 0
1555 0 1 -1.1794 2.513596941223815 16.940937729932326 4.071289573774292 0 -2 0
1357 0 1 -1.1794 6.1009745802116955 17.526187867937477 3.677160906352087 0 1 -1
1517 0 2 0.5897 0.9525669190733392 16.411268495605448 2.9682888142684756 0 -1 1
2087 0 2 0.5897 1.443918712027891 18.608330305190055 0.24371104825151726 0 0 1
610 0 1 -1.1794 8.59825056544648 16.496940510980114 3.2395530552927707 0 1 0
818 0 2 0.5897 10.708297673617565 16.16776347521517 0.7203975615662767 0 0 -2
611 0 2 0.5897 9.362010686577696 16.558132711242312 3.816795818324011 0 1 0
612 0 2 0.5897 8.971854660634264 16.764466541844747 2.367230156653214 0 1 0
817 0 1 -1.1794 10.383005975212646 16.850706517842955 1.3101665146057715 0 0 -2
819 0 2 0.5897 10.592420132032299 17.604339698412105 0.8165503356981437 0 0 -2
1359 0 2 0.5897 7.0178833950726 17.322893492813808 3.3883729775919615 0 1 -1
2054 0 2 0.5897 8.323796078928659 19.767983136086972 1.296455179111353 0 -2 2
2053 0 1 -1.1794 7.65113216688182 19.149943977430052 1.5758542494069416 0 -2 2
2055 0 2 0.5897 7.132073099780341 19.718290082789988 2.1590949741897068 0 -2 1
1866 0 2 0.5897 8.659823789109247 19.039319199646286 3.178716032849087 0 1 2
1864 0 1 -1.1794 9.428264647418464 19.308425320577047 3.662960359338989 0 1 2
1547 0 2 0.5897 10.98002875385901 19.844742038296655 2.844867417336569 0 0 -1
786 0 2 0.5897 11.380869674489952 19.506681327479026 0.6096142994106084 0 -1 0
989 0 2 0.5897 11.252565788016776 17.408500009874366 3.5621720981254024 1 -1 2
1374 0 2 0.5897 7.723493093604344 17.708826028317716 0.14555706726804388 0 0 0
1546 0 1 -1.1794 11.903657300313693 19.73338119243955 2.4005018299674323 0 0 -1
1373 0 2 0.5897 7.3282138606071 16.23776085586006 0.03670040982580192 0 0 0
1151 0 2 0.5897 2.8276125007817687 0.943004127592139 4.246041886845097 0 0 0
1305 0 2 0.5897 6.220106144671434 0.6555411469107902 4.290397021471362 0 -2 0
1150 0 1 -1.1794 2.2825468624010465 0.7381771826016823 5.013331896703283 0 0 0
1081 0 1 -1.1794 4.35631314193118 0.8433177102248601 6.680928326194933 0 0 0
1083 0 2 0.5897 4.910621872834662 0.334193735297538 6.107192851242985 0 0 0
1082 0 2 0.5897 3.4478866391134195 0.6020963522845376 6.491078128512612 0 0 0
2031 0 2 0.5897 4.417320754898201 2.5073470285327937 5.768419296081162 0 3 1
2029 0 1 -1.1794 4.43787969400762 3.448041692274746 5.4823103457636595 0 3 1
2084 0 2 0.5897 6.020189793009379 3.42165685635909 4.670449934298053 0 1 1
795 0 2 0.5897 0.7666763547669705 1.2007117670277687 5.7163834718111195 0 0 -1
1530 0 2 0.5897 2.7269365821681224 3.8854570011279215 5.1666459849859825 0 0 -1
2030 0 2 0.5897 4.550872228453889 3.906308381947839 6.336682915750292 0 3 1
1529 0 2 0.5897 1.202921999173689 3.852575731519441 5.241587949974214 0 0 -1
1109 0 2 0.5897 8.216747132551378 2.2096774444559624 4.342926538669781 0 2 2
1108 0 1 -1.1794 9.153860583395746 1.9808565671168061 4.473086343089692 0 2 2
2083 0 1 -1.1794 6.863276303232492 3.511754260082045 4.294386956547656 0 1 1
1830 0 2 0.5897 10.945267933259753 2.699699860802833 4.515416669234898 0 -2 0
332 0 2 0.5897 8.091812244550958 2.073401035626664 8.309020408810255 0 0 -1
1112 0 2 0.5897 10.049272147032923 1.3264667185697727 6.070943851441956 0 -2 2
1111 0 1 -1.1794 10.448932065350746 0.6692852647570512 6.641111960222684 0 -2 2
1113 0 2 0.5897 10.7335454460042 1.0775270896360227 7.435903813703059 0 -2 2
1839 0 2 0.5897 8.86981168502505 3.386021691446317 6.119900908924113 0 2 2
1837 0 1 -1.1794 8.61864156374975 3.351650384313492 7.07266742675126 0 2 2
1838 0 2 0.5897 7.9413005273454225 3.9959530209524226 7.153092608718054 0 2 2
1828 0 1 -1.1794 11.798541099768043 3.098611856735384 4.466334809373195 0 -2 0
1106 0 2 0.5897 0.8207982943257015 6.224142367063 5.853686973066647 0 -1 0
1528 0 1 -1.1794 1.9289328085494208 4.077034522110419 4.646794837860597 0 0 -1
1107 0 2 0.5897 1.597874523906496 6.062660054711199 7.104331312162656 0 -1 0
1105 0 1 -1.1794 1.5917508154784015 6.614201094902623 6.322182659991629 0 -1 0
899 0 2 0.5897 5.0866083171095 7.55907138036126 5.909698603553119 0 0 0
898 0 1 -1.1794 5.839985448289985 6.958208172060611 6.053527746310774 0 0 0
1893 0 2 0.5897 4.342820826473592 7.009786630138585 7.749491839494748 0 -2 -2
111 0 2 0.5897 2.67047941963214 7.800057357858226 5.718370557356245 0 -2 2
328 0 1 -1.1794 4.622669405031215 4.559763308084668 7.935085484339112 0 -1 -1
900 0 2 0.5897 5.940480648592435 6.4484117060367065 5.241912580430513 0 0 0
2014 0 1 -1.1794 8.362539584377867 5.757508030876958 4.790023840717343 1 1 -1
2085 0 2 0.5897 7.271275850917092 4.39347276028455 4.472347209894685 0 1 1
2015 0 2 0.5897 9.02216252285633 5.525780249408714 5.503038136802357 1 1 -1
1064 0 2 0.5897 6.81086264203181 5.98442243010406 7.167503775686967 0 0 2
1063 0 1 -1.1794 7.312484681129421 5.466688510060426 7.829558368691715 0 0 2
1774 0 1 -1.1794 11.012361242337713 5.4816174945472005 6.3806971548148415 0 -2 -1
1775 0 2 0.5897 10.699911679416974 5.801034245842583 7.256725512830172 0 -3 -1
1776 0 2 0.5897 11.366613297853258 4.573440762676688 6.495434814786456 0 -2 -1
1065 0 2 0.5897 8.040794350568358 5.974295189009591 8.092327809532735 0 0 2
110 0 2 0.5897 3.329557908071737 9.192114479975166 5.733447556834482 0 -2 3
109 0 1 -1.1794 3.523021205100009 8.245635802020477 5.574391972960414 0 -2 3
1621 0 1 -1.1794 2.6327256004845996 11.273522434421713 4.815821538261818 0 2 0
1623 0 2 0.5897 3.4934879150113827 11.790394944929004 4.872949478664122 0 2 0
580 0 1 -1.1794 2.6217361931126866 11.430182208136763 7.480126708443981 0 1 0
581 0 2 0.5897 2.3908722587159135 10.527708090844923 7.8663926734436345 0 1 0
582 0 2 0.5897 2.2139727975388768 11.388990778294891 6.621512654943021 0 1 0
1349 0 2 0.5897 10.500830200156921 8.381905467463127 4.736747634269956 0 0 0
269 0 2 0.5897 7.157773313099528 8.073853093054698 6.339793687279993 0 0 1
96 0 2 0.5897 7.589711858288338 10.632842809659925 7.11203781899278 0 0 2
1015 0 1 -1.1794 10.312543493654047 9.74276923387792 6.112489537534993 0 -2 2
268 0 1 -1.1794 7.751945614375584 8.731734977248497 6.79319234989005 0 0 1
1016 0 2 0.5897 9.786634237815624 9.221068290946516 6.747856462719516 0 -2 2
1017 0 2 0.5897 11.153645489399647 10.02091773028761 6.527622721448227 0 -2 2
270 0 2 0.5897 7.558196119577006 8.550412398086682 7.749799510605732 0 0 1
2121 0 2 0.5897 9.556405663571736 10.96237857970019 4.744582816971868 0 2 0
94 0 1 -1.1794 7.51800816236422 11.513392981922292 7.477992030925906 0 0 2
95 0 2 0.5897 6.587712462126527 11.631148755458696 7.786458065068319 0 0 2
882 0 2 0.5897 5.768364091869446 12.082556303057888 4.9779606342615255 0 2 0
1069 0 1 -1.1794 1.278856006644594 14.397208543335761 5.383001572121265 0 1 1
1070 0 2 0.5897 1.4170347728832349 14.203189449325452 4.445948587465839 0 1 1
880 0 1 -1.1794 5.0739650907648794 12.681181192606797 5.127005217702248 0 2 0
1071 0 2 0.5897 2.1242717945172584 14.494977509957362 5.960586416903869 0 1 1
224 0 2 0.5897 4.184606266095867 15.552964886634078 6.509286204618301 1 0 0
223 0 1 -1.1794 3.266141387449034 15.43406203240047 6.795498641321929 1 0 0
225 0 2 0.5897 3.2037729937890296 15.313696348321695 7.775996821008443 1 0 0
881 0 2 0.5897 5.188588505263724 13.101617674594417 6.027117020534892 0 2 0
1324 0 1 -1.1794 5.937866219538974 15.986218654615975 6.058613066285076 0 -2 -2
373 0 1 -1.1794 5.0127978456228055 12.456374453300793 8.115463561373405 0 1 1
1325 0 2 0.5897 6.48270215084357 15.183420085711681 5.876539132970434 0 -2 -2
375 0 2 0.5897 4.097069849976188 12.081726996078578 8.252865454163569 0 1 1
1558 0 1 -1.1794 11.225446369627381 13.805007800628504 4.346917674924899 0 0 1
2035 0 1 -1.1794 7.8728901612977165 13.733009693916877 5.876975539473412 0 -1 -1
2036 0 2 0.5897 7.75670818250231 13.0960437235749 6.613265932108164 0 -1 -1
2037 0 2 0.5897 8.534167544508566 14.321094546349764 6.274218850750404 0 -1 -1
273 0 2 0.5897 11.384490195194415 13.363822979236001 6.006468982586381 0 -1 1
837 0 2 0.5897 10.408366165287173 12.514479124725607 7.84663895377054 0 0 0
271 0 1 -1.1794 11.585842130462188 13.223629660450719 6.943250216767104 0 -1 1
24 0 2 0.5897 9.880992120786747 15.589509133638424 7.729362965476844 0 -2 2
23 0 2 0.5897 10.204149066039863 15.713219979707219 6.205014239671951 0 -2 2
22 0 1 -1.1794 9.545092818764134 15.761867738616484 6.84230492785169 0 -2 2
272 0 2 0.5897 12.152460580532225 14.012977718508917 7.144274706564826 0 -1 1
1152 0 2 0.5897 1.868473701381094 19.918131703388216 4.819850155783517 0 -1 0
1515 0 2 0.5897 2.7182866310632106 19.088976783965308 8.087742929443417 0 -1 -2
1326 0 2 0.5897 6.186755931782815 16.37333086772655 5.159374695505442 0 -2 -2
1557 0 2 0.5897 2.411198264995691 17.258567041046998 4.978343232531309 0 -2 0
506 0 2 0.5897 2.8596252468695518 17.103845894102324 7.019556710687074 0 0 0
505 0 1 -1.1794 2.2878341435340888 17.904882721498005 6.901413051324705 0 0 0
507 0 2 0.5897 1.4019028164645615 17.73733995913394 7.257102930682488 0 0 0
565 0 1 -1.1794 6.092534626466482 19.363397171758823 5.516887838169082 0 -3 -1
566 0 2 0.5897 5.790179325999296 18.650484488191772 4.970165158011273 0 -3 -1
1587 0 2 0.5897 6.454018161415893 16.987023807389985 7.557228478611828 0 -1 1
988 0 1 -1.1794 11.01747704697516 16.839733255851925 4.290449143759192 1 -1 2
1865 0 2 0.5897 9.22293594139151 18.932915842224848 4.550188394496477 0 1 2
483 0 2 0.5897 11.667739966429584 17.903066140723514 7.673210384457207 1 1 0
567 0 2 0.5897 6.83536118281713 19.1016029963009 6.051355797541748 0 -3 -2
893 0 2 0.5897 9.36618720426286 19.139050226195316 6.492381995507857 0 0 0
892 0 1 -1.1794 8.675333173147806 18.41654958517103 6.38306455296178 0 0 0
894 0 2 0.5897 9.083382691957794 17.567482934357322 6.524588332176063 0 1 0
990 0 2 0.5897 11.36426942075377 17.332651353779696 5.03298474773313 1 -1 2
481 0 1 -1.1794 11.983431336878995 17.689001853814375 6.748401468938031 1 1 0
338 0 2 0.5897 4.508426480416537 1.36971051788661 8.443442235284554 0 0 2
339 0 2 0.5897 4.7981449091943675 2.8398700621874333 9.022659598045916 0 0 2
337 0 1 -1.1794 4.953734610554444 1.9155798612073638 9.171753724116618 0 0 2
1141 0 1 -1.1794 5.522516409992397 0.6862409447091579 11.482659019256179 0 -1 1
1143 0 2 0.5897 5.072073773227617 1.2466921397955408 10.833389824402857 0 -1 1
1607 0 2 0.5897 1.949231771936509 0.4393134952087739 9.846988876171656 0 -2 -1
1608 0 2 0.5897 1.7633746737278073 1.7511453842460818 10.852634169230507 0 -2 -1
2248 0 1 -1.1794 1.9409621209226322 3.213934173033163 11.54140291615056 1 1 0
1142 0 2 0.5897 6.4453875749319485 0.8905852093302258 11.576537820295353 0 -1 1
2250 0 2 0.5897 2.795032978276216 3.6476161642143423 11.495102619409609 1 1 0
2249 0 2 0.5897 1.440293600613495 3.5393985722130745 12.28153398091626 1 1 0
1606 0 1 -1.1794 1.329531975113337 1.0859465732306386 10.242583109075804 0 -2 -1
1307 0 2 0.5897 5.67727765454201 3.643225093293728 11.258975528800793 0 1 0
2268 0 2 0.5897 0.9634389480921178 2.3493026908730594 9.162323176953906 1 -1 1
1306 0 1 -1.1794 4.796363677231563 3.879450503360555 11.566937497628924 0 1 0
333 0 2 0.5897 6.746214014739522 1.457170852464323 8.862160302375303 0 0 -1
331 0 1 -1.1794 7.707712721660205 1.3346715867614678 8.821664286996175 0 0 -1
62 0 2 0.5897 10.221187976955862 3.551814894437827 9.646320608382101 0 -2 -2
1228 0 1 -1.1794 11.481438981360833 1.542722061990294 9.119611997351816 1 0 0
1229 0 2 0.5897 11.403358504207247 1.5862433157523326 10.082857314043695 1 0 0
53 0 2 0.5897 7.673115875781299 2.948305164060449 10.297076720845762 0 0 -1
289 0 1 -1.1794 8.633275255464714 0.3136228236297902 11.896968600900934 0 1 1
1327 0 1 -1.1794 10.86675045828983 1.8194263070892296 11.809969255441452 0 0 -2
1328 0 2 0.5897 10.529306801493156 2.6122586590670545 12.204262646924963 0 0 -2
1329 0 2 0.5897 10.131247977290167 1.1691234148662706 11.955772173235626 0 0 -2
52 0 1 -1.1794 7.484798255162286 3.3142946557916226 11.144299699489288 0 0 -1
1230 0 2 0.5897 12.035839540150425 2.222607962661864 8.765920932942976 1 0 0
329 0 2 0.5897 5.427405057064852 4.8434025078972125 8.39453901962991 0 -1 -1
330 0 2 0.5897 3.7918296005149954 4.8263583661445475 8.3480520725572 0 -1 -1
1891 0 1 -1.1794 4.152553298131434 7.378317390564134 8.645135809132691 0 -2 -2
20 0 2 0.5897 1.4648852446991816 4.520220579101016 8.792727718194188 0 0 -1
19 0 1 -1.1794 2.0111866474928854 5.301242568601702 8.575052746809613 0 0 -1
21 0 2 0.5897 1.8999872677026939 5.885845308725423 9.35844835696219 1 0 -1
1308 0 2 0.5897 4.799251215496354 4.8732552043231685 11.451227342588803 0 1 0
1635 0 2 0.5897 2.412323609436685 6.854313477219635 11.21369779474118 0 1 -3
765 0 2 0.5897 4.672710406214129 7.159343409123182 11.788956773720535 0 -3 -1
1634 0 2 0.5897 1.017754996063236 6.444885956520942 11.416001720552512 0 1 -3
1633 0 1 -1.1794 1.5547855088650233 6.950223660427283 10.777096145603627 0 1 -3
763 0 1 -1.1794 4.145843643979683 6.531878461554826 11.276712305077156 0 -3 -1
764 0 2 0.5897 4.231727776274515 6.872742048506053 10.347264902678427 0 -3 -1
256 0 1 -1.1794 9.953630107980482 6.41621429691121 8.621991048091958 0 0 1
54 0 2 0.5897 7.526244251884196 4.280653793672579 11.061463194442501 0 0 -1
63 0 2 0.5897 11.460211273223027 4.36802647682955 10.102556612390147 0 -2 -2
257 0 2 0.5897 10.16834940252155 5.725794534135324 9.239188248875434 0 0 1
61 0 1 -1.1794 10.525568423275255 4.355680123701412 10.106726935897386 0 -2 -2
648 0 2 0.5897 8.013834740638114 6.316109624506206 12.233926262257269 0 -1 -2
1481 0 2 0.5897 9.950300475782344 5.160108144089958 11.920375221901901 1 1 0
646 0 1 -1.1794 7.978387647560307 6.063755070810231 11.302367437881982 0 -1 -2
647 0 2 0.5897 7.680261001628542 6.852066966759141 10.932907752962937 0 -1 -1
258 0 2 0.5897 10.198216658844187 7.328175191703095 8.861402473069894 0 0 1
791 0 2 0.5897 11.971877757103172 7.857400685210224 12.193206837446423 0 -4 2
1892 0 2 0.5897 3.481705192781848 8.048082500460218 8.560744136632056 0 -2 -2
1489 0 1 -1.1794 2.250885120702499 9.264459833543881 8.728245404403324 1 -1 -2
1491 0 2 0.5897 2.3183928349119114 9.12225626661386 9.701759506191564 1 -1 -2
1490 0 2 0.5897 1.3420138755259197 8.947707761309545 8.514264590331825 1 -1 -2
474 0 2 0.5897 3.458616066197741 10.308028376915427 11.152146664829075 1 -1 -1
503 0 2 0.5897 5.741643069459289 9.805042604110804 12.007540688120214 1 1 1
472 0 1 -1.1794 3.237404809073728 9.391634202138544 11.125637885933015 1 -1 -1
504 0 2 0.5897 6.008296806101654 11.132237376494091 11.244726824672172 1 1 1
92 0 2 0.5897 5.809848677656102 8.312291944760823 9.300277953794222 0 4 0
473 0 2 0.5897 3.1267934840062903 9.045351443024481 12.02294136862127 1 -1 -1
502 0 1 -1.1794 6.447542550129612 10.381033471204576 11.599704218858003 1 1 1
517 0 1 -1.1794 11.501382123291558 11.310711539733264 11.562862738925299 0 0 1
518 0 2 0.5897 11.801258855217743 11.038429581379782 12.442887211505125 0 0 1
91 0 1 -1.1794 6.685441475394491 8.478799049105508 9.654457657115895 0 4 0
93 0 2 0.5897 6.628476031103668 9.196069484749072 10.28394233736738 0 4 0
977 0 2 0.5897 10.670695622753309 10.135043997819698 9.10174481325647 1 -1 0
978 0 2 0.5897 10.990985965153765 9.078840001160122 10.158021774775976 1 -1 0
806 0 2 0.5897 9.988219579795416 10.339981785645655 11.627120261060496 0 1 -1
976 0 1 -1.1794 10.850607783749236 9.24575261270081 9.216382315921562 1 -1 0
805 0 1 -1.1794 9.32092742887124 9.724266745053784 11.98149704492538 0 1 -1
807 0 2 0.5897 8.3917998761262 9.938442632873988 11.75979089468502 0 1 -1
374 0 2 0.5897 5.210032348846859 13.089463709970477 8.842694491324401 0 1 1
539 0 2 0.5897 3.247829954515238 12.548964302374253 10.643645813690387 0 0 2
230 0 2 0.5897 1.783462264128672 12.369082061001537 8.63947114713302 1 -1 0
217 0 1 -1.1794 3.0989942290122077 15.264997815386854 9.513441985604144 1 0 0
218 0 2 0.5897 2.587019883619629 14.481617672590026 9.605694438326719 1 0 0
219 0 2 0.5897 4.0440134325109725 15.155154839808091 9.70976018333414 1 0 0
229 0 1 -1.1794 1.7566749177748289 12.757698573931341 9.508521980636576 1 -1 0
298 0 1 -1.1794 5.819627939330406 14.770296153314721 9.608357012059333 0 -1 0
538 0 1 -1.1794 4.0711216127093905 12.244918688004086 11.032416249718016 0 0 2
300 0 2 0.5897 6.247759239420248 15.492741652993368 9.135125368805744 0 -1 -1
540 0 2 0.5897 4.418200453192309 13.042553387906176 11.445848901632251 0 0 2
299 0 2 0.5897 6.171676470242597 14.83353469054992 10.535699826862485 0 -1 0
231 0 2 0.5897 0.8896434390923439 12.78784961733062 9.886998140804835 1 -1 0
836 0 2 0.5897 9.075896413998771 12.069581000514448 8.362076317117355 0 0 0
835 0 1 -1.1794 10.028977677584557 12.059567882581153 8.633218412276953 0 0 0
1072 0 1 -1.1794 10.062432979021883 13.350492119782007 10.876483341071399 0 0 -1
1074 0 2 0.5897 10.020447623765342 12.872679795950711 10.035930656570374 0 0 -1
1073 0 2 0.5897 9.15836983168044 13.381859983244116 11.246961268673648 0 0 -1
1242 0 2 0.5897 10.788966948809616 14.861789632339931 10.06786525498506 1 0 0
1240 0 1 -1.1794 10.949383530609474 15.501174351647398 9.381321927336666 1 0 0
519 0 2 0.5897 11.298012421908611 12.235531857132672 11.633066351473898 0 0 1
1844 0 2 0.5897 7.988398158002706 15.075828761320647 11.973840479942544 0 1 0
1843 0 1 -1.1794 7.751038531404719 14.101414368310618 12.119748794498292 0 1 0
1241 0 2 0.5897 11.823755454874545 15.846669441374639 9.462782129498363 1 0 0
1513 0 1 -1.1794 2.9582609039549492 19.537814576681754 8.929159321689973 0 -1 -2
1514 0 2 0.5897 3.7536578090905395 19.069082093719572 9.257409537082525 0 -1 -2
1778 0 2 0.5897 1.760640621509646 16.377169706818286 10.053102565896857 0 0 1
1524 0 2 0.5897 5.5324873274415 18.975648847609058 10.90166485008966 0 -2 0
1522 0 1 -1.1794 4.977717279161442 18.31535111749251 10.46525211549853 0 -2 0
1502 0 2 0.5897 4.7467912570799 16.939154117715866 11.92382582683667 1 0 0
1523 0 2 0.5897 5.508219439190164 17.953679646521497 9.732500005049475 0 -2 0
1777 0 1 -1.1794 0.9390761477164822 16.809214650734745 10.230224762812089 0 0 1
891 0 2 0.5897 1.5370255619478936 17.809924123338682 11.79830806863514 0 1 3
1499 0 2 0.5897 11.735943293206612 19.852408116291787 9.15488531610711 1 0 1
291 0 2 0.5897 8.599615113425067 19.754214625653084 11.182760175324006 0 0 1
36 0 2 0.5897 8.589355565033891 19.82602057884995 9.241279256230957 0 -2 1
1585 0 1 -1.1794 6.555213484916611 17.19602118889535 8.50310573130069 0 -1 1
1586 0 2 0.5897 7.214591072583536 17.894869231564172 8.484197009390073 0 -1 1
1498 0 1 -1.1794 11.515321802008735 18.902404158847627 9.183363444108926 1 0 1
34 0 1 -1.1794 8.775447636344532 18.909944360153332 9.491250947467824 0 -2 1
35 0 2 0.5897 9.729396439247266 18.85351271143143 9.453961382029577 0 -2 1
1500 0 2 0.5897 12.100670147739226 18.519520408211584 9.878834378691899 1 0 1
628 0 1 -1.1794 8.15978529178765 16.84705327154641 11.507320809866338 0 -2 -1
630 0 2 0.5897 8.224695171255943 17.445216001822402 10.744187688683548 0 -2 -1
629 0 2 0.5897 7.573932930483027 17.257264534326445 12.153915629996112 0 -2 -1
1002 0 2 0.5897 11.305103163905134 16.61700890733322 11.958915137120927 1 0 1
1001 0 2 0.5897 9.79417505843568 16.685793305555066 12.340710484726081 1 1 1
5 0 2 0.5897 4.018550224021596 0.43709961189780444 12.845566904832655 0 0 1
6 0 2 0.5897 2.934402981238914 1.1930142040840117 13.587020782362105 0 0 1
604 0 1 -1.1794 2.511008142375677 2.7097073334369077 14.942859940594506 0 0 3
606 0 2 0.5897 3.2504977560179285 3.1265471204283455 14.501597345203741 0 0 3
1644 0 2 0.5897 6.2808237423847295 0.46054386179515233 15.80662719463229 0 0 3
605 0 2 0.5897 2.950674412731204 2.389696282476148 15.713296115259638 0 0 3
294 0 2 0.5897 1.094274221697807 3.887503318596613 15.725206491570734 0 -2 -2
1643 0 2 0.5897 6.399471454661191 0.6097939625702429 14.360979818716851 0 0 3
4 0 1 -1.1794 3.2424490025533927 0.32140851425280237 13.371131834937358 0 0 1
2139 0 2 0.5897 7.803017517147437 2.55825302298425 12.90213959626713 0 1 -1
2138 0 2 0.5897 8.545538543736036 2.21431743023677 14.186255139396575 0 1 -1
574 0 1 -1.1794 9.92740075587883 2.0725958773147712 15.30330665502568 0 -1 1
576 0 2 0.5897 10.559467832156724 2.7563509694592456 15.271257846040127 0 -1 1
1283 0 2 0.5897 9.433951314487105 0.259985076310263 15.042824189996777 0 -1 0
575 0 2 0.5897 9.50802185019179 2.2902215257445557 16.13295331455399 0 -1 1
2137 0 1 -1.1794 7.648788292253065 2.3544990593249158 13.774236686716163 0 1 -1
527 0 2 0.5897 12.068825051652949 3.7587875083456925 16.32836111647955 0 0 -2
2149 0 1 -1.1794 4.671381668548342 4.541734015330161 14.229111249369424 0 2 0
2150 0 2 0.5897 4.80733883390314 4.020121178515538 13.426993819817133 0 2 0
2151 0 2 0.5897 5.524548656400855 4.686734304657858 14.678289136895616 0 2 0
734 0 2 0.5897 3.2309430850770875 5.623678783697684 14.382819527200521 1 1 0
733 0 1 -1.1794 2.457762108708164 6.142144889991628 14.7095390016718 1 1 0
735 0 2 0.5897 1.6655871727549711 5.663036809760375 14.357874705902487 1 1 0
1857 0 2 0.5897 11.949050046698856 7.406140521824924 15.716138665800846 0 1 1
1092 0 2 0.5897 7.439860283019407 4.073857050773077 15.025345268768078 0 -2 -1
1091 0 2 0.5897 7.109186982375355 4.804278236616632 16.355673947263714 0 -2 -1
1090 0 1 -1.1794 7.023825674774022 4.885718301902808 15.379062513392425 0 -2 -1
1480 0 1 -1.1794 10.430966878356083 4.910550259810712 12.753312237500548 1 1 0
526 0 1 -1.1794 11.754614975175182 4.238225415598611 15.5045623692737 0 0 -2
1260 0 2 0.5897 7.951898747953837 6.2766930812173465 14.490224022612475 1 -3 1
1482 0 2 0.5897 9.934780441856821 5.221280497951485 13.535205980037459 1 1 0
1258 0 1 -1.1794 8.061188678056595 6.995863257305124 13.86864368517429 1 -3 1
1259 0 2 0.5897 8.583944760038698 7.548677946569993 14.46395984079063 1 -3 1
745 0 1 -1.1794 9.03210464776062 7.933427859066316 16.069046118394766 1 1 0
638 0 2 0.5897 6.5058869009690685 7.98994410330665 13.477954315574683 0 0 1