LAMMPS (23 Jun 2022)
echo both

include		in.partitions
variable        pid world 0
include		in.temp
variable	temperature equal 255.0
variable        tempDamp equal 0.100 # this is 0.1 ps
include		in.pressure
variable        pressure equal 5066.25
variable        pressureDamp equal 1.0 #this is 1ps
include		in.seed
variable        seed world 745823

units           metal
atom_style	full
read_restart	restart.lmp.${pid}
read_restart	restart.lmp.0
Reading restart file ...
  restart file = 23 Jun 2022, LAMMPS = 23 Jun 2022
  restoring atom style full from restart
  orthogonal box = (0.53979585 0 0) to (46.910903 20.047001 20.857)
  4 by 1 by 1 MPI processor grid
Summary of lammps deepmd module ...
  >>> Info of deepmd-kit:
  installed to:       /u/sigbjobo/software/DEEPMD_FROM_SOURCE/deepmd-kit/install
  source:             v2.1.3
  source branch:       master
  source commit:      5a32c49
  source commit at:   2022-07-01 09:52:58 +0800
  surpport model ver.:1.1 
  build float prec:   double
  build with tf inc:  /u/sigbjobo/software/DEEPMD_FROM_SOURCE/tensorflow/install/include;/u/sigbjobo/software/DEEPMD_FROM_SOURCE/tensorflow/install/include
  build with tf lib:  /u/sigbjobo/software/DEEPMD_FROM_SOURCE/tensorflow/install/lib/libtensorflow_cc.so;/u/sigbjobo/software/DEEPMD_FROM_SOURCE/tensorflow/install/lib/libtensorflow_framework.so
  set tf intra_op_parallelism_threads: 0
  set tf inter_op_parallelism_threads: 0
  >>> Info of lammps module:
  use deepmd-kit at:  /u/sigbjobo/software/DEEPMD_FROM_SOURCE/deepmd-kit/install
  source:             v2.1.3
  source branch:      master
  source commit:      5a32c49
  source commit at:   2022-07-01 09:52:58 +0800
  build float prec:   double
  build with tf inc:  /u/sigbjobo/software/DEEPMD_FROM_SOURCE/tensorflow/install/include;/u/sigbjobo/software/DEEPMD_FROM_SOURCE/tensorflow/install/include
  build with tf lib:  /u/sigbjobo/software/DEEPMD_FROM_SOURCE/tensorflow/install/lib/libtensorflow_cc.so;/u/sigbjobo/software/DEEPMD_FROM_SOURCE/tensorflow/install/lib/libtensorflow_framework.so
  restoring pair style deepmd from restart
  2268 atoms
Finding 1-2 1-3 1-4 neighbors ...
  special bond factors lj:    0        0        0       
  special bond factors coul:  0        0        0       
     0 = max # of 1-2 neighbors
     0 = max # of 1-3 neighbors
     0 = max # of 1-4 neighbors
     1 = max # of special neighbors
  special bonds CPU = 0.000 seconds
  read_restart CPU = 0.008 seconds
include 	in.setup
variable	out_freq equal 500
variable	out_freq2 equal 1000
variable	out_freq3 equal 5000

timestep        0.0005

neigh_modify    delay 7 every 1

include         in.deepmd
# This is deepMD model

# create groups ###
#group ox type 2
#group hy type 1

mass 2 15.999
mass 1 1.008

pair_style      deepmd ../graph.pb
pair_coeff      * *

bond_style      none
angle_style     none
dihedral_style  none
improper_style  none
neigh_modify exclude none


neighbor        2.0 bin
neigh_modify    every 10 delay 0 check no

thermo          ${out_freq}
thermo          500
thermo_style 	custom step temp pe etotal epair emol press lx ly lz vol pxx pyy pzz pxy pxz pyz
#thermo_modify	flush yes
restart 	${out_freq} restart.lmp.${pid} restart2.lmp.${pid}
restart 	500 restart.lmp.${pid} restart2.lmp.${pid}
restart 	500 restart.lmp.0 restart2.lmp.${pid}
restart 	500 restart.lmp.0 restart2.lmp.0

include		in.dump
dump            myDump all atom ${out_freq3} dump.water.${pid}
dump            myDump all atom 5000 dump.water.${pid}
dump            myDump all atom 5000 dump.water.0
dump            myDump2 all dcd ${out_freq2} dump.dcd.${pid}
dump            myDump2 all dcd 1000 dump.dcd.${pid}
dump            myDump2 all dcd 1000 dump.dcd.0
dump_modify     myDump append yes
dump_modify     myDump2 append yes


timer           timeout 23:50:00 every 1000
New timer settings: style=normal  mode=nosync  timeout=23:50:00

fix             1 all plumed plumedfile plumed.dat outfile plumed.out
fix             3 all nph x ${pressure} ${pressure} ${pressureDamp}
fix             3 all nph x 5066.25 ${pressure} ${pressureDamp}
fix             3 all nph x 5066.25 5066.25 ${pressureDamp}
fix             3 all nph x 5066.25 5066.25 1
fix             4 all temp/csvr ${temperature} ${temperature} ${tempDamp} ${seed}
fix             4 all temp/csvr 255 ${temperature} ${tempDamp} ${seed}
fix             4 all temp/csvr 255 255 ${tempDamp} ${seed}
fix             4 all temp/csvr 255 255 0.1 ${seed}
fix             4 all temp/csvr 255 255 0.1 745823

run             40000000 upto

CITE-CITE-CITE-CITE-CITE-CITE-CITE-CITE-CITE-CITE-CITE-CITE-CITE

Your simulation uses code contributions which should be cited:

- USER-DEEPMD package:

@article{Wang_ComputPhysCommun_2018_v228_p178,
  author = {Wang, Han and Zhang, Linfeng and Han, Jiequn and E, Weinan},
  doi = {10.1016/j.cpc.2018.03.016},
  url = {https://doi.org/10.1016/j.cpc.2018.03.016},
  year = 2018,
  month = {jul},
  publisher = {Elsevier {BV}},
  volume = 228,
  journal = {Comput. Phys. Commun.},
  title = {{DeePMD-kit: A deep learning package for many-body potential energy representation and molecular dynamics}},
  pages = {178--184}
}

CITE-CITE-CITE-CITE-CITE-CITE-CITE-CITE-CITE-CITE-CITE-CITE-CITE

Generated 0 of 1 mixed pair_coeff terms from geometric mixing rule
Neighbor list info ...
  update every 10 steps, delay 0 steps, check no
  max neighbors/atom: 2000, page size: 100000
  master list distance cutoff = 8
  ghost atom cutoff = 8
  binsize = 4, bins = 12 6 6
  1 neighbor lists, perpetual/occasional/extra = 1 0 0
  (1) pair deepmd, perpetual
      attributes: full, newton on
      pair build: full/bin
      stencil: full/bin/3d
      bin: standard
Per MPI rank memory allocation (min/avg/max) = 6.185 | 6.186 | 6.189 Mbytes
   Step          Temp          PotEng         TotEng         E_pair         E_mol          Press            Lx             Ly             Lz           Volume          Pxx            Pyy            Pzz            Pxy            Pxz            Pyz      
  22786000   250.38124     -353.50496     -280.13506     -353.50496      0              3317.9182      46.371107      20.047001      20.857         19388.701      5208.5794      1876.1577      2869.0175     -815.54858     -1169.8944     -1959.832     
  22786500   260.71331     -356.08069     -279.68315     -356.03759      0              5657.2089      46.267425      20.047001      20.857         19345.35       4921.7858      6787.4431      5262.3979     -1073.2805     -687.77216      1906.9364    
  22787000   254.17707     -354.35596     -279.87376     -354.31236      0              4699.9575      46.266683      20.047001      20.857         19345.039      6220.8059      4707.2855      3171.7813      1101.1054     -867.3981       1088.2941    
  22787500   254.75172     -356.11501     -281.46442     -356.07143      0              7147.1184      46.436263      20.047001      20.857         19415.944      4035.1558      10466.729      6939.47       -2406.8636      473.70405      1658.6643    
  22788000   261.08421     -356.60516     -280.09894     -356.56064      0              3419.6677      46.485392      20.047001      20.857         19436.486      5809.4371      2688.3759      1761.1902      367.55253      1431.3518     -1042.5083    
  22788500   261.82325     -355.58156     -278.85878     -355.53683      0              5601.4735      46.232608      20.047001      20.857         19330.792      6566.3126      4872.4226      5365.6852      72.17421      -1909.89        1282.8717    
  22789000   255.07698     -354.45951     -279.7136      -354.41546      0              5175.6619      46.17619       20.047001      20.857         19307.202      5729.766       5544.8362      4252.3835     -7.6692756     -1906.2577     -1098.5799    
  22789500   251.59609     -356.54744     -282.82155     -356.50693      0              7532.8219      46.369222      20.047001      20.857         19387.913      7621.7496      7419.9359      7556.7801      132.70585      1215.3121      1097.2217    
  22790000   252.7732      -356.78505     -282.71422     -356.74178      0              4282.4827      46.432007      20.047001      20.857         19414.165      5727.0854      1582.8618      5537.5008     -1295.9266     -1862.9005     -907.67879    
  22790500   252.15434     -356.39788     -282.5084      -356.35383      0              5794.1184      46.229898      20.047001      20.857         19329.659      6734.9665      5278.7383      5368.6504     -533.61699     -224.4489       948.40344    
  22791000   246.75159     -354.00142     -281.69512     -353.95613      0              5896.2357      46.073918      20.047001      20.857         19264.44       4593.7843      7917.9386      5176.9841     -846.4993      -275.38872      1202.7502    
  22791500   251.69602     -356.34505     -282.58988     -356.30057      0              3563.1293      46.028717      20.047001      20.857         19245.541      5539.1724      2553.3463      2596.869      -232.25689      15.438694     -1624.9036    
  22792000   251.22513     -355.23263     -281.61543     -355.1874       0              5664.8825      46.074186      20.047001      20.857         19264.553      7096.5113      4383.9224      5514.214      -303.31727      1116.4508     -1608.1854    
  22792500   255.02303     -358.11759     -283.38749     -358.07286      0              3390.9404      46.390449      20.047001      20.857         19396.788      3937.9465      4709.7379      1525.1369     -407.44366      464.72174     -620.50939    
  22793000   255.0409      -354.83637     -280.10103     -354.79141      0              2107.978       46.37281       20.047001      20.857         19389.413      1125.7993      2173.8888      3024.2459     -409.30637     -701.48715     -435.19916    
  22793500   261.85994     -356.61589     -279.88235     -356.57121      0              7736.1138      46.160943      20.047001      20.857         19300.827      10587.992      5312.5554      7307.794      -53.239352      841.48494      679.89271    
  22794000   247.16442     -354.23084     -281.80357     -354.19722      0              4330.2638      46.204662      20.047001      20.857         19319.107      5691.3063      4781.7965      2517.6885     -1787.6304     -507.38727      17.798197    
  22794500   249.50757     -354.77294     -281.65906     -354.72869      0              2787.8592      46.269926      20.047001      20.857         19346.395      2650.9722      2513.9511      3198.6544     -106.54198     -128.46017      831.84021    
  22795000   253.68836     -353.1541      -278.8151      -353.1089       0              4834.7586      46.189261      20.047001      20.857         19312.668      5535.1483      4323.795       4645.3325      522.53045      496.36634     -480.61081    
  22795500   257.57178     -355.77682     -280.29986     -355.73288      0              2578.4742      46.427975      20.047001      20.857         19412.479      3977.1086      2257.5909      1500.7231     -507.65313      1273.0899      309.04082    
  22796000   256.96257     -354.02604     -278.72759     -353.98134      0              2762.6633      46.625409      20.047001      20.857         19495.03       1756.6797      5114.5941      1416.716      -2401.4159      1380.2001     -378.34625    
  22796500   262.21985     -352.02795     -275.18895     -351.98738      0              5619.5783      46.259177      20.047001      20.857         19341.901      6916.4317      3203.7605      6738.5427      207.36496      2672.6402      478.65968    
  22797000   259.80716     -355.22345     -279.09144     -355.17887      0              5714.2396      46.087193      20.047001      20.857         19269.991      7025.2667      7369.3915      2748.0607     -874.09681      1047.7866     -501.8184     
  22797500   255.17447     -356.29703     -281.52255     -356.2523       0              3739.8713      46.250012      20.047001      20.857         19338.069      4427.8393      1417.5666      5374.2079      13.163468     -372.39137     -574.38477    
  22798000   255.39552     -355.4075      -280.56825     -355.37832      0              4595.2729      46.355787      20.047001      20.857         19382.296      4469.4559      4512.8588      4803.504      -495.11953      589.23636      413.68463    
  22798500   258.95216     -354.99525     -279.11379     -354.9627       0              5453.6037      46.04231       20.047001      20.857         19251.224      4466.3609      5532.8099      6361.6404     -122.15491      2024.9357      385.27845    
  22799000   260.25511     -354.68796     -278.42469     -354.64406      0              3842.7135      45.981459      20.047001      20.857         19225.781      6026.9302      1754.4244      3746.786      -643.87963      908.91074     -2308.3634    
  22799500   256.84964     -357.27811     -282.01275     -357.23687      0              3573.3265      46.316263      20.047001      20.857         19365.77       3975.4003      4009.6222      2734.9569      318.04647      1128.373      -36.339376    
  22800000   247.66996     -355.59386     -283.01845     -355.55062      0              3148.6314      46.667392      20.047001      20.857         19512.584      4757.1041      3280.1427      1408.6475     -75.631908      847.95482     -902.82487    
  22800500   250.23351     -357.0636      -283.73699     -357.01983      0              4916.4759      46.196618      20.047001      20.857         19315.744      6616.3953      2543.815       5589.2175     -384.11666      2497.8326     -374.46073    
  22801000   254.3855      -354.14131     -279.59803     -354.09772      0              2957.9053      45.74219       20.047001      20.857         19125.738      5806.9511      2048.816       1017.9488     -786.02553      607.4664       1167.8179    
  22801500   257.95774     -356.53382     -280.94376     -356.48926      0              7016.9021      46.008405      20.047001      20.857         19237.048      8195.0047      7327.2903      5528.4112     -749.05413      1920.2449     -734.07353    
  22802000   249.91508     -354.23336     -281.00006     -354.19015      0              5393.3183      46.279454      20.047001      20.857         19350.379      6865.2161      3655.9152      5658.8236      576.40329     -1690.5735     -636.23553    
  22802500   251.69589     -354.73056     -280.97542     -354.68548      0              4302.1111      46.305024      20.047001      20.857         19361.07       3963.6241      5881.7403      3060.9688     -545.60721      979.24991     -711.69854    
  22803000   259.12355     -356.75033     -280.81864     -356.70535      0              4490.0712      46.199576      20.047001      20.857         19316.98       6461.439       2224.5437      4784.231      -118.13086      902.43454     -1311.1454    
  22803500   251.14632     -354.4444      -280.8503      -354.40701      0              5688.3741      46.200191      20.047001      20.857         19317.238      6606.7507      4846.0011      5612.3704      166.58917      758.32604     -626.52642    
  22804000   245.15447     -355.34709     -283.5088      -355.30268      0              5086.4849      46.436428      20.047001      20.857         19416.013      6610.6377      2587.4018      6061.4153      171.75431     -674.14919      555.98345    
  22804500   253.49664     -356.36041     -282.07759     -356.31722      0              4243.7449      46.364023      20.047001      20.857         19385.739      3909.4488      3814.3242      5007.4617      785.71244     -92.334822      671.57669    
  22805000   252.13835     -354.29536     -280.41057     -354.25142      0              6482.5016      45.996759      20.047001      20.857         19232.179      6353.1926      7452.1128      5642.1994     -144.72659      1762.2979     -142.66326    
  22805500   251.06244     -354.37015     -280.80063     -354.33         0              5917.6495      46.163625      20.047001      20.857         19301.949      5076.3848      7239.2069      5437.3568     -94.810987     -449.40207      12.884538    
  22806000   253.68373     -357.36031     -283.02267     -357.3151       0              4656.0447      46.440102      20.047001      20.857         19417.549      4688.2387      4606.574       4673.3214      205.17689      260.49472     -113.67026    
  22806500   257.7847      -358.16311     -282.62375     -358.11861      0              4728.2305      46.291083      20.047001      20.857         19355.242      6278.6618      3351.1892      4554.8405     -481.76621     -1125.7193     -134.50651    
  22807000   248.83494     -356.41203     -283.49524     -356.36787      0              4854.6882      45.999926      20.047001      20.857         19233.503      5192.2641      4385.4796      4986.3208      52.116237      949.66512      439.36244    
  22807500   248.07007     -357.1601      -284.46744     -357.11625      0              5502.5393      46.064051      20.047001      20.857         19260.315      6012.5396      6846.2725      3648.8059      33.955441      1857.0939     -979.39338    
  22808000   250.92275     -356.10653     -282.57795     -356.06147      0              4270.7461      46.43257       20.047001      20.857         19414.4        5863.5949      3311.1667      3637.4765      339.66704     -737.98656     -382.92752    
  22808500   257.23709     -356.62048     -281.24159     -356.57537      0              6835.3913      46.445711      20.047001      20.857         19419.894      7193.0604      7182.5575      6130.5561     -1409.2896      1106.3692      2622.111     
  22809000   249.3383      -357.17203     -284.10774     -357.15065      0              4408.2512      46.307179      20.047001      20.857         19361.971      5683.3701      4816.2849      2725.0985      197.69573      1138.5547      3.8447587    
  22809500   253.42623     -356.28222     -282.02004     -356.23779      0              4069.4883      46.294679      20.047001      20.857         19356.745      6206.1557      1943.7988      4058.5104      155.59256      990.92497     -1575.5465    
  22810000   264.13311     -356.98406     -279.58441     -356.94521      0              4632.755       46.47796       20.047001      20.857         19433.379      5595.7957      3506.38        4796.0894     -818.18239     -795.29793      2575.6982    
  22810500   259.14632     -357.46287     -281.52451     -357.42834      0              5109.5726      46.512505      20.047001      20.857         19447.822      5902.1219      4998.6895      4427.9062     -100.91994     -2287.3763      54.906608    
  22811000   260.73369     -353.83446     -277.43095     -353.79196      0              6697.3587      46.301401      20.047001      20.857         19359.556      8160.6047      5909.5093      6021.962       765.76044     -742.32376     -208.13073    
  22811500   255.89452     -355.2012      -280.21572     -355.15612      0              3313.656       46.339766      20.047001      20.857         19375.597      3880.3383      3220.0588      2840.571       587.37292     -582.01666      535.11168    
  22812000   261.48886     -354.40382     -277.77902     -354.35916      0              4088.681       46.319418      20.047001      20.857         19367.089      5305.3179      1099.7146      5861.0106     -1153.9628      1084.4576     -454.35595    
  22812500   249.16193     -355.15424     -282.14163     -355.11026      0              5286.4761      46.420741      20.047001      20.857         19409.454      6677.9665      3938.8356      5242.6264     -522.82807     -407.50489      60.964619    
  22813000   255.48783     -354.33626     -279.46996     -354.2931       0              3317.3099      46.34075       20.047001      20.857         19376.008      5891.7127      3412.5295      647.68753      1123.4516     -714.49286      437.24258    
  22813500   259.20588     -356.15674     -280.20092     -356.11356      0              4051.5262      46.187919      20.047001      20.857         19312.107      3090.4258      4411.4832      4652.6696      338.7557      -334.72634      1716.9845    
  22814000   254.71431     -357.06074     -282.42111     -357.01758      0              4233.6715      45.951297      20.047001      20.857         19213.17       6590.2271      2617.6447      3493.1427      643.03036      707.90325     -336.74989    
  22814500   255.21098     -354.7972      -280.01203     -354.75406      0              3928.1663      46.290769      20.047001      20.857         19355.11       5102.4535      3250.8341      3431.2114     -474.03023     -557.84373      850.87479    
  22815000   251.43865     -355.83224     -282.15248     -355.78847      0              2779.0262      46.653553      20.047001      20.857         19506.798      2088.1483      5318.8236      930.10673     -578.91368      9.3392742     -714.8197     
  22815500   256.11075     -354.37416     -279.32532     -354.32952      0              6504.1706      46.341497      20.047001      20.857         19376.321      7437.0806      5488.9581      6586.4732      612.85056      354.23404     -1677.7785    
  22816000   268.31705     -353.79648     -275.1708      -353.75156      0              5394.3828      46.297522      20.047001      20.857         19357.934      7675.6076      4185.2788      4322.2621     -61.625865     -1043.1523      1042.5448    
  22816500   256.97411     -354.33295     -279.03112     -354.28799      0              2788.6495      46.507144      20.047001      20.857         19445.581      4038.5581      1186.1811      3141.2092      622.55072     -727.91789     -1186.2218    
  22817000   259.26918     -353.89169     -277.91733     -353.84662      0              7182.1067      46.548333      20.047001      20.857         19462.803      8589.6682      6922.2973      6034.3547     -285.26356      66.651493     -1484.1334    
  22817500   247.43266     -352.90433     -280.39846     -352.86178      0              3321.317       46.387937      20.047001      20.857         19395.738      3176.6292      3032.7555      3754.5662      702.37463     -475.00651     -921.29976    
  22818000   254.30215     -356.76377     -282.24491     -356.71993      0              3922.5102      46.287636      20.047001      20.857         19353.8        4791.478       2857.7554      4118.2973     -737.12379     -225.64806     -505.99398    
  22818500   253.75826     -354.04092     -279.68144     -353.99656      0              2667.698       46.30845       20.047001      20.857         19362.503      1867.362       3543.7206      2592.0113     -2.6543839      610.72577     -555.50193    
  22819000   254.76109     -354.80383     -280.15049     -354.76044      0              4110.3555      46.36577       20.047001      20.857         19386.47       7311.6966      1207.7181      3811.6518      903.21047     -1187.4104     -2179.4795    
  22819500   251.03294     -357.649       -284.08813     -357.60924      0              4529.4179      46.328939      20.047001      20.857         19371.07       7541.1665      2866.3929      3180.6943     -175.9683       848.15906      879.67143    
  22820000   250.9424      -357.57689     -284.04255     -357.53372      0              6594.5889      46.294058      20.047001      20.857         19356.485      6470.1845      7709.7386      5603.8436     -116.72941      196.9758      -854.42872    
  22820500   252.33227     -359.17094     -285.22932     -359.1273       0              4288.1365      46.216812      20.047001      20.857         19324.187      4432.8615      4231.7711      4199.7771     -645.68797      1143.3204      191.89216    
  22821000   248.73042     -357.40108     -284.51492     -357.35685      0              4929.9176      46.319517      20.047001      20.857         19367.13       6320.9913      4813.9429      3654.8186     -247.27606     -2368.8904     -1624.5565    
  22821500   259.46755     -358.19893     -282.16644     -358.15413      0              2702.1516      46.525567      20.047001      20.857         19453.284      3134.5936      2193.1942      2778.667       636.36737      2037.1606      1151.4033    
  22822000   255.82439     -358.13355     -283.16863     -358.08939      0              4272.3597      46.307725      20.047001      20.857         19362.2        4896.4566      4356.8792      3563.7433     -1597.5096      1305.2066     -1552.8282    
  22822500   252.99501     -357.61265     -283.47682     -357.56858      0              4248.9372      46.2298        20.047001      20.857         19329.618      5166.4116      4484.3761      3096.024       465.47419      1019.2822     -114.83033    
  22823000   253.31252     -358.09193     -283.86306     -358.04744      0              4095.9734      46.485457      20.047001      20.857         19436.513      4544.1334      4755.032       2988.7548     -417.27908     -423.74527     -155.32203    
  22823500   252.69322     -357.53998     -283.49259     -357.4951       0              4579.061       46.519041      20.047001      20.857         19450.555      5889.9738      1787.28        6059.9292      905.89981      982.29395     -588.51806    
  22824000   257.05993     -355.68895     -280.36198     -355.64601      0              4354.5856      46.360149      20.047001      20.857         19384.12       4476.41        3950.2746      4637.0722      267.25732      1030.3383      1915.5247    
  22824500   263.15883     -358.09197     -280.97782     -358.04873      0              4919.0511      46.401324      20.047001      20.857         19401.335      6313.6667      4790.8445      3652.6421     -2169.954       1319.0982     -798.60259    
  22825000   249.17343     -355.83524     -282.81926     -355.7938       0              6600.3062      46.600437      20.047001      20.857         19484.589      7969.4099      6015.3304      5816.1783     -606.71596      1042.6821     -1392.999     
  22825500   260.75294     -355.68462     -279.27547     -355.65001      0              4562.8451      46.677336      20.047001      20.857         19516.742      5906.0022      2955.5118      4827.0212      931.26422     -1461.7576      1692.4926    
  22826000   250.9553      -356.45763     -282.9195      -356.41427      0              6426.8233      46.505633      20.047001      20.857         19444.949      6404.3229      7813.5207      5062.6261      255.55009     -488.69657      233.93292    
  22826500   252.40168     -356.96467     -283.00271     -356.92023      0              3255.4761      46.459811      20.047001      20.857         19425.79       4096.8908      2190.5818      3478.9558     -285.78447     -821.21989     -984.85551    
  22827000   251.37627     -357.97014     -284.30866     -357.92534      0              4377.4202      46.441836      20.047001      20.857         19418.274      6903.8654      3185.1994      3043.1958     -223.74728     -2136.9062      784.04824    
  22827500   259.64675     -358.09994     -282.01494     -358.05552      0              3784.5954      46.414019      20.047001      20.857         19406.644      4664.5823      3705.9475      2983.2564      1111.5125      90.6198       -1456.942     
  22828000   256.99691     -357.19586     -281.88735     -357.15166      0              4416.2905      46.714573      20.047001      20.857         19532.311      3100.2845      5179.6112      4968.9756      474.21684      672.53358      405.82198    
  22828500   254.88962     -356.47794     -281.78693     -356.43357      0              3875.4085      46.490063      20.047001      20.857         19438.439      3859.5058      3815.3576      3951.3622     -578.28676     -892.74607     -567.31206    
  22829000   254.24495     -355.72682     -281.22472     -355.68269      0              3454.3104      46.299072      20.047001      20.857         19358.582      4618.6316      2147.6647      3596.6349     -1192.6434      67.999767     -1333.6712    
  22829500   261.81764     -357.98632     -281.26518     -357.95877      0              3897.3122      46.644204      20.047001      20.857         19502.888      4527.8522      3331.5414      3832.5429      371.42953      771.34071      709.29157    
  22830000   247.52371     -356.11209     -283.57953     -356.06735      0              4668.6188      46.740782      20.047001      20.857         19543.27       5105.367       5407.5813      3492.908       1180.0931     -150.82892     -477.34363    
  22830500   250.41796     -355.08427     -281.70361     -355.0396       0              5831.2677      46.266743      20.047001      20.857         19345.064      6542.159       6731.106       4220.5382      539.31452      1277.3766      1552.3898    
  22831000   250.2352      -358.18844     -284.86133     -358.1542       0              4247.7471      46.469806      20.047001      20.857         19429.969      5026.225       4631.0519      3085.9643     -383.15074      281.52254      165.33268    
  22831500   252.56755     -359.1979      -285.18733     -359.15781      0              3001.8468      46.596524      20.047001      20.857         19482.952      4847.7553      2127.4848      2030.3002     -1706.1643     -258.9436      -760.13301    
  22832000   253.23442     -356.80945     -282.60348     -356.76644      0              5416.1627      46.317992      20.047001      20.857         19366.493      7286.4347      7328.6899      1633.3633      488.58577      531.611        67.690682    
  22832500   255.50286     -356.12015     -281.24945     -356.09256      0              5472.7262      46.291071      20.047001      20.857         19355.236      6320.1558      4778.2161      5319.8067      254.58837     -427.44057     -1936.8786    
  22833000   253.34595     -356.16098     -281.92232     -356.12198      0              5396.1175      46.346494      20.047001      20.857         19378.41       4934.2474      5547.8705      5706.2346      436.95445      757.96029     -211.12549    
  22833500   257.84603     -356.15637     -280.59904     -356.11317      0              5579.3206      46.265952      20.047001      20.857         19344.734      5560.9347      4009.9959      7167.0313     -760.36333     -1381.9049     -810.74909    
  22834000   246.71351     -355.737       -283.44186     -355.69218      0              5296.4655      46.158231      20.047001      20.857         19299.693      5942.212       4862.3597      5084.8249     -369.4757      -444.48371     -1310.6237    
  22834500   257.23272     -357.62405     -282.24644     -357.58213      0              4958.6122      46.276788      20.047001      20.857         19349.265      5633.8547      5788.5367      3453.4454     -1105.7257     -1227.8665     -1579.632     
  22835000   257.37468     -354.73365     -279.31444     -354.70593      0              4633.5334      46.458768      20.047001      20.857         19425.354      4095.5367      4734.8689      5070.1946      574.03369     -1088.5728     -719.90447    
  22835500   261.06461     -352.3618      -275.86132     -352.31794      0              6638.6026      46.232791      20.047001      20.857         19330.868      6536.8205      7063.4221      6315.5651      178.68796      298.25472      1027.5121    
  22836000   260.68413     -356.45354     -280.06455     -356.4086       0              2673.447       46.130583      20.047001      20.857         19288.133      4691.4977      1383.7236      1945.1197     -199.61042      3147.0584     -722.33642    
  22836500   258.2435      -358.13683     -282.46303     -358.13227      0              4869.9415      46.612884      20.047001      20.857         19489.793      5482.6766      5463.6418      3663.506       241.25496     -1351.3522      533.22101    
  22837000   257.9561      -356.03089     -280.4413      -355.98709      0              3018.47        46.492073      20.047001      20.857         19439.28       2670.6035      3923.3495      2461.457       71.483902      1568.2079      1123.3216    
  22837500   258.09017     -357.34936     -281.72049     -357.30447      0              3999.0697      46.193927      20.047001      20.857         19314.619      4668.7806      3668.6023      3659.8262      311.09855      1567.2956      25.974705    
  22838000   255.46792     -358.54319     -283.68273     -358.50291      0              4647.4631      46.26686       20.047001      20.857         19345.113      5165.0578      4696.6652      4080.6663      822.39426      278.72649     -405.1781     
  22838500   261.67667     -357.97514     -281.29531     -357.93025      0              4310.9811      46.651479      20.047001      20.857         19505.93       5179.2032      4567.4011      3186.339      -1140.3188     -2352.9998     -481.25152    
  22839000   255.80289     -357.90075     -282.94212     -357.85742      0              3640.9209      46.52409       20.047001      20.857         19452.666      3026.6199      1598.3443      6297.7985     -519.39067      1146.6466     -658.43025    
  22839500   254.36818     -356.83454     -282.29633     -356.7912       0              4951.6791      46.081369      20.047001      20.857         19267.556      5776.5169      4003.3193      5075.2012     -198.80742     -738.27738     -1827.5869    
  22840000   251.94481     -354.6144      -280.78632     -354.58079      0              6012.5221      46.188457      20.047001      20.857         19312.332      8509.7398      6848.7458      2679.0808      1076.7959     -162.84833      1087.7798    
  22840500   248.05534     -357.85036     -285.16202     -357.80876      0              4021.4115      46.632297      20.047001      20.857         19497.91       3284.674       3316.2639      5463.2964     -1104.1422      382.20878      1423.4918    
  22841000   261.18126     -357.55631     -281.02165     -357.52122      0              5132.1169      46.437546      20.047001      20.857         19416.481      7224.9735      4461.5365      3709.8409     -406.37489     -336.60356     -541.82824    
  22841500   257.04813     -358.24348     -282.91996     -358.1997       0              3465.4489      46.250887      20.047001      20.857         19338.435      5867.3724      1959.1462      2569.8282     -198.73688      346.76834      187.62604    
  22842000   261.65648     -355.07662     -278.40271     -355.03302      0              2262.8277      46.183992      20.047001      20.857         19310.465      3465.3091     -194.13181      3517.3058     -615.28659      855.54402      535.75327    
  22842500   258.03266     -356.91863     -281.30661     -356.87555      0              4703.3412      46.044255      20.047001      20.857         19252.038      4600.0314      4377.0277      5132.9645     -336.34541      1090.3234     -1396.3027    
  22843000   248.43349     -356.77022     -283.97107     -356.72666      0              4587.932       46.218652      20.047001      20.857         19324.957      3707.2012      4375.4579      5681.1369      792.48235      982.15814      262.21667    
  22843500   250.73267     -355.86493     -282.39205     -355.82194      0              3144.832       46.167085      20.047001      20.857         19303.395      4789.2674      2467.0598      2178.1688      1114.5859     -391.51775      235.8089     
  22844000   249.55169     -356.78546     -283.65864     -356.74214      0              5636.5881      46.300223      20.047001      20.857         19359.063      7596.539       3861.9824      5451.2429     -1110.0548     -1085.4138      248.1105     
  22844500   258.60308     -357.09729     -281.31812     -357.05397      0              3542.1688      46.400661      20.047001      20.857         19401.058      7082.0236     -437.39297      3981.8758     -510.75761      137.75294     -710.16075    
  22845000   249.60369     -355.19043     -282.04838     -355.14605      0              4764.6146      46.358346      20.047001      20.857         19383.365      4513.9398      6069.8555      3710.0485      22.415899      811.54816     -82.46219     
  22845500   259.0993      -357.36872     -281.44414     -357.3258       0              5627.7024      46.05051       20.047001      20.857         19254.653      7108.492       4913.5059      4861.1094     -2263.2762     -1291.3794     -2374.4734    
  22846000   255.52235     -357.71897     -282.84255     -357.6837       0              6666.9842      46.071154      20.047001      20.857         19263.285      6178.5583      6190.2619      7632.1323     -817.3686      -426.64256     -804.34315    
  22846500   248.92505     -355.93291     -282.98972     -355.88893      0              4540.6413      46.420933      20.047001      20.857         19409.535      4743.1437      4842.3638      4036.4165     -308.67222      561.39349      212.44788    
  22847000   254.55156     -357.67176     -283.07981     -357.6268       0              4486.0919      46.352295      20.047001      20.857         19380.836      6084.58        3104.2348      4269.461       1358.0143     -1332.6248      1143.1585    
  22847500   254.85646     -354.89458     -280.21329     -354.85306      0              5922.3981      46.176903      20.047001      20.857         19307.501      5435.0016      7914.1794      4418.0135     -381.16043      808.00874      1292.0934    
  22848000   256.82344     -355.8234      -280.56572     -355.77943      0              5922.7682      46.374848      20.047001      20.857         19390.265      5411.2108      5880.4615      6476.6322     -2113.4679      1365.3293      661.39704    
  22848500   258.07519     -358.12206     -282.49758     -358.07718      0              2954.5332      46.502375      20.047001      20.857         19443.587      1843.3139      4245.8652      2774.4204      1439.9885     -1011.7772     -1362.2936    
  22849000   264.48121     -354.36253     -276.86087     -354.31758      0              2005.9863      46.32329       20.047001      20.857         19368.708      4300.2897      1831.5048     -113.83578     -1689.0005     -1721.3118      94.43672     
  22849500   255.50577     -355.87568     -281.00412     -355.83165      0              3445.8896      46.021593      20.047001      20.857         19242.562      5228.7454      1422.7305      3686.1929      588.1595       1247.8005      229.56286    
  22850000   259.83877     -355.13165     -278.99038     -355.0878       0              6882.0838      46.030488      20.047001      20.857         19246.281      6972.9567      6223.8108      7449.484      -544.19028      149.25784     -195.00558    
  22850500   255.35705     -358.19771     -283.36973     -358.15282      0              4855.9185      46.4083        20.047001      20.857         19404.252      5021.0717      6452.5394      3094.1445     -206.89997      864.58832     -1227.2574    
  22851000   245.45442     -357.57585     -285.64967     -357.54286      0              4455.9948      46.549843      20.047001      20.857         19463.434      5868.2933      3052.2765      4447.4145     -487.38291     -1257.2591      557.09007    
  22851500   254.57972     -358.79634     -284.19614     -358.75562      0              2634.3038      46.477101      20.047001      20.857         19433.019      4280.5484     -33.002025      3655.365      -541.16487     -94.884499      151.9967     
  22852000   259.25612     -355.21793     -279.24739     -355.17316      0              3929.4497      46.292382      20.047001      20.857         19355.785      5280.0627      2851.2784      3657.008      -2239.9141     -1161.1889      1300.2789    
  22852500   259.43769     -354.90287     -278.87913     -354.85812      0              5145.399       46.175037      20.047001      20.857         19306.72       3506.9788      6900.2413      5028.977       418.86306     -899.26731     -627.36965    
  22853000   250.77841     -356.74462     -283.25833     -356.70219      0              4161.2014      46.225064      20.047001      20.857         19327.638      5010.2564      3891.2283      3582.1195     -1313.109       1471.8366      356.14026    
  22853500   255.81828     -357.86666     -282.90353     -357.82383      0              4660.0998      46.361523      20.047001      20.857         19384.694      5234.4067      4122.5542      4623.3384     -413.73782      298.46761      796.54335    
  22854000   252.4768      -358.24062     -284.25665     -358.2007       0              6488.0606      46.317391      20.047001      20.857         19366.241      6958.0286      5638.4105      6867.7426     -273.77654     -367.81294      1871.3209    
  22854500   253.79916     -355.44648     -281.07501     -355.4028       0              5597.2735      46.20325       20.047001      20.857         19318.517      5551.4603      5423.9446      5816.4156     -2431.7922      521.20693      706.93882    
  22855000   254.47377     -359.23458     -284.66543     -359.1897       0              5857.3093      46.29112       20.047001      20.857         19355.257      6428.9901      5682.1329      5460.805      -219.61705      100.70115      2120.2297    
  22855500   252.8879      -357.85008     -283.74565     -357.80562      0              5107.0394      46.219276      20.047001      20.857         19325.218      6802.8734      4193.2783      4324.9664     -1173.1985      622.92027      55.788788    
  22856000   257.33876     -359.38516     -283.97647     -359.34235      0              4491.9615      46.117041      20.047001      20.857         19282.471      4903.0226      4545.2001      4027.6617      1346.4821      278.14429      1349.1948    
  22856500   256.35311     -359.3948      -284.27494     -359.34992      0              5044.5272      45.984765      20.047001      20.857         19227.164      3898.0172      6143.4043      5092.1601     -442.43012     -287.85587      335.55024    
  22857000   253.66818     -358.55507     -284.22199     -358.51122      0              4085.8203      45.879962      20.047001      20.857         19183.343      6027.6019      1643.2073      4586.6518      666.21914     -565.62194      1700.9455    
  22857500   255.47874     -357.09551     -282.23188     -357.05258      0              4578.5555      46.137658      20.047001      20.857         19291.091      4034.1349      6272.9638      3428.5677     -626.63964      48.402794      984.6909     
  22858000   264.57359     -356.20106     -278.67233     -356.15762      0              3575.8032      46.338098      20.047001      20.857         19374.899      3563.2963      3811.8038      3352.3095      921.08934     -1556.587      -2026.4351    
  22858500   252.84083     -355.02306     -280.93241     -354.97823      0              3939.5037      45.905108      20.047001      20.857         19193.858      6662.9023      1642.6296      3512.9794     -1276.2073      432.4345       1320.3186    
  22859000   255.88857     -356.95878     -281.97505     -356.9152       0              4483.0511      45.876345      20.047001      20.857         19181.831      3573.0382      6154.9341      3721.1811     -380.58909     -360.84593     -566.43349    
  22859500   253.72121     -354.57857     -280.22995     -354.53486      0              4276.1653      46.201001      20.047001      20.857         19317.576      4675.2996      4618.5383      3534.658      -1280.2213      88.936514     -456.67835    
  22860000   258.40406     -357.11315     -281.3923      -357.06906      0              3384.7309      46.363201      20.047001      20.857         19385.395      3349.2938      2547.4176      4257.4812     -1152.7188     -1270.3076      318.31593    
  22860500   256.52647     -357.26232     -282.09166     -357.21839      0              5684.917       46.065924      20.047001      20.857         19261.098      7451.9885      5229.4456      4373.3169      90.668922      451.09174      2228.0387    
  22861000   251.57415     -356.10355     -282.38408     -356.05966      0              5469.0965      46.240262      20.047001      20.857         19333.992      7242.2077      5092.2119      4072.87        31.048867      112.94888     -9.7070397    
  22861500   255.03041     -356.95193     -282.21967     -356.90725      0              4426.811       46.50095       20.047001      20.857         19442.991      2996.0338      5168.3457      5116.0534     -423.72442     -1428.0512      95.657797    
  22862000   253.22661     -356.94331     -282.73962     -356.89898      0              2705.0709      46.42046       20.047001      20.857         19409.337      3503.2883      2276.3534      2335.571       247.54826     -845.62342      923.01144    
  22862500   251.1035      -360.61545     -287.0339      -360.60334      0              4142.5577      46.242896      20.047001      20.857         19335.094      6598.989       4211.4417      1617.2422     -125.1553       76.231837     -150.89265    
  22863000   250.07998     -359.12691     -285.84529     -359.0847       0              4874.6537      46.110436      20.047001      20.857         19279.709      4626.3343      4070.1209      5927.5059     -1291.837       149.75867      461.94354    
  22863500   252.63525     -357.53293     -283.50253     -357.48815      0              4335.5935      46.273317      20.047001      20.857         19347.813      6069.7779      2232.8831      4704.1193      526.86288      997.85615     -1336.0872    
  22864000   257.21134     -354.18284     -278.8115      -354.13975      0              3976.9713      46.410814      20.047001      20.857         19405.304      4226.611       4362.6558      3341.6472     -389.80179      34.516455     -1198.4705    
  22864500   248.34567     -356.88904     -284.11563     -356.8455       0              3176.8835      46.456194      20.047001      20.857         19424.278      3416.7933      2231.3717      3882.4855     -15.330364      110.56101     -1638.9344    
  22865000   247.12232     -358.20307     -285.78814     -358.15893      0              3985.7294      46.565991      20.047001      20.857         19470.186      6734.8496      3849.3406      1372.9979     -765.01347     -148.90451     -1546.8689    
  22865500   252.14006     -356.26327     -282.37798     -356.21911      0              3123.2901      46.606138      20.047001      20.857         19486.972      2812.177       2036.6724      4521.0208      1596.835      -439.56805     -663.61212    
  22866000   253.0978      -356.95456     -282.78862     -356.91123      0              3264.2919      46.590381      20.047001      20.857         19480.384      4510.6394      2170.2468      3111.9896      784.75031     -1188.5979     -2224.2241    
  22866500   253.64233     -356.99735     -282.67184     -356.95517      0              4639.587       46.438993      20.047001      20.857         19417.086      6972.1329      2530.1652      4416.463      -924.55517      222.65558      1581.628     
  22867000   250.55368     -356.23796     -282.81753     -356.19351      0              5752.4861      46.134967      20.047001      20.857         19289.966      6023.3607      5542.9481      5691.1497      498.31213      1133.5927      223.7236     
  22867500   251.25498     -356.4308      -282.80486     -356.40262      0              4684.5729      46.313185      20.047001      20.857         19364.483      5969.6363      5030.2477      3053.8347      190.81864     -1076.9501     -181.84761    
  22868000   251.86358     -357.29356     -283.48928     -357.2493       0             -77.113848      46.732987      20.047001      20.857         19540.011     -1524.5621      1458.8948     -165.67423      332.34499      2112.9542     -558.72619    
  22868500   261.51544     -354.29043     -277.65784     -354.2463       0              4296.6071      46.423392      20.047001      20.857         19410.563      4166.6925      4935.7695      3787.3594      876.24         894.57341      124.89792    
  22869000   260.84208     -357.53681     -281.10154     -357.4931       0              5043.6898      46.182687      20.047001      20.857         19309.919      6782.7139      4052.8535      4295.5021     -619.96741     -729.6443      -1167.8095    
  22869500   252.6472      -355.13065     -281.09675     -355.08781      0              3574.0156      46.286722      20.047001      20.857         19353.418      4936.0626      1496.3216      4289.6627      245.08991     -439.55489      1765.4696    
  22870000   264.31582     -355.46805     -278.01486     -355.42499      0              4795.9253      46.621249      20.047001      20.857         19493.291      6498.4808      3445.7071      4443.5878      60.450341      1106.8403     -1104.9368    
  22870500   252.1258      -356.29775     -282.41664     -356.27164      0              4774.1302      46.707267      20.047001      20.857         19529.256      4938.0348      3352.272       6032.0838      1028.8343     -188.67152     -742.87386    
  22871000   254.48359     -356.43405     -281.86203     -356.39036      0              4757.9577      46.060459      20.047001      20.857         19258.813      7104.6591      4717.3464      2451.8675     -1382.0797      389.6472       295.79899    
  22871500   260.14757     -355.37054     -279.13878     -355.33313      0              5550.9367      45.967497      20.047001      20.857         19219.944      7443.8198      4860.5912      4348.3992      704.90662     -937.56283     -2233.1255    
  22872000   260.09244     -356.9141      -280.6985      -356.86949      0              3639.2898      46.350481      20.047001      20.857         19380.077      5592.9645      1966.1525      3358.7524     -635.29708     -811.93117      288.45013    
  22872500   248.96419     -356.03454     -283.07988     -355.99037      0              4116.0275      46.29255       20.047001      20.857         19355.855      4477.4681      5311.9561      2558.6582      723.79229     -1101.2296     -1076.4957    
  22873000   255.47774     -356.15312     -281.28978     -356.11009      0              7535.1128      45.948666      20.047001      20.857         19212.07       9717.7533      7003.2036      5884.3814     -135.12644     -1149.1208      525.27708    
  22873500   254.65622     -356.24606     -281.62345     -356.20196      0              6833.5847      46.050952      20.047001      20.857         19254.838      8261.5029      6657.4593      5581.7918     -1764.1903      1071.1641     -1067.3501    
  22874000   257.93402     -356.1057      -280.52258     -356.0704       0              5177.2801      46.548         20.047001      20.857         19462.664      6382.3563      3767.6168      5381.8673     -255.28958     -427.21836      545.7465     
  22874500   256.45959     -356.64869     -281.49763     -356.60586      0              3477.4548      46.39079       20.047001      20.857         19396.931      3037.3365      2710.8561      4684.1719     -142.37663      105.38825     -405.07784    
  22875000   242.70273     -356.8139      -285.69405     -356.7706       0              6367.0433      46.217211      20.047001      20.857         19324.354      7422.8556      4766.2747      6911.9995      253.1909       23.4099        1900.8282    
  22875500   248.75796     -359.15447     -286.26024     -359.11026      0              2976.8497      46.368497      20.047001      20.857         19387.61       3594.7777      2933.3005      2402.4709      996.40276      293.91989      410.75478    
  22876000   252.31377     -360.18555     -286.24936     -360.14191      0              4015.1673      46.527244      20.047001      20.857         19453.985      6114.4325      2824.4785      3106.5909     -334.78731      141.85038     -400.02629    
  22876500   257.8003      -356.70027     -281.15634     -356.65706      0              5159.7485      46.581908      20.047001      20.857         19476.841      6001.8447      4163.3569      5314.0438      1491.0793      151.96925      356.7967     
  22877000   247.6512      -354.38951     -281.8196      -354.34481      0              5303.727       46.304069      20.047001      20.857         19360.671      6328.0619      6970.4951      2612.6241      81.587556      40.812405     -262.0322     
  22877500   247.03513     -355.56554     -283.17615     -355.52195      0              3944.1988      46.264104      20.047001      20.857         19343.961      3792.0701      2827.8132      5212.7132      69.296855      662.76381     -1487.4771    
  22878000   259.21571     -357.36876     -281.41007     -357.32565      0              3363.0145      46.738482      20.047001      20.857         19542.308      3878.7734      2343.969       3866.3011      1049.5366     -12.579362     -980.29433    
  22878500   258.97047     -356.35628     -280.46945     -356.31159      0              4563.0245      46.657065      20.047001      20.857         19508.266      5612.55        2744.2016      5332.3219     -480.08965      698.19883      200.01129    
  22879000   255.94024     -355.16877     -280.1699      -355.12595      0              5213.2781      46.252989      20.047001      20.857         19339.314      5686.0574      5165.2439      4788.533       637.57974     -1100.9799     -740.93128    
  22879500   244.85299     -355.90672     -284.15677     -355.86298      0              5035.8504      46.392228      20.047001      20.857         19397.532      5992.1865      4024.9859      5090.3787      96.662203     -964.9251       1504.5413    
  22880000   253.09788     -357.16594     -282.99997     -357.12137      0              4848.3802      46.413286      20.047001      20.857         19406.337      5515.5848      5019.6287      4009.927      -732.60949      381.75356     -1624.1855    
  22880500   253.46816     -356.51916     -282.24469     -356.47539      0              6246.0857      46.368444      20.047001      20.857         19387.588      7710.3167      6516.581       4511.3592      682.29145      1442.6036      521.83174    
  22881000   252.34129     -356.44045     -282.49619     -356.3959       0              6108.1756      46.392655      20.047001      20.857         19397.711      7787.5761      4226.9897      6309.9609     -828.77215     -1545.1522     -524.54077    
  22881500   256.81186     -357.29393     -282.03965     -357.25016      0              1503.1029      46.504718      20.047001      20.857         19444.567      4437.8328     -1612.2641      1683.7399     -1417.3794     -78.178126      413.96243    
  22882000   253.70965     -356.75989     -282.41465     -356.71613      0              3935.9188      46.452271      20.047001      20.857         19422.637      3314.9337      4228.5121      4264.3106     -470.80362     -581.36086     -1059.1307    
  22882500   250.11138     -355.76193     -282.47111     -355.71776      0              5490.4736      46.317108      20.047001      20.857         19366.123      5813.7837      5518.635       5139.002       488.38703     -765.67638      1640.9233    
  22883000   249.17029     -354.65845     -281.64339     -354.63998      0              3965.9665      46.178569      20.047001      20.857         19308.197      2802.3832      4099.4212      4996.095       681.2461      -1306.4654     -306.88781    
  22883500   253.09062     -356.88103     -282.71719     -356.8379       0              2702.1891      46.424328      20.047001      20.857         19410.954      3826.7416      513.0779       3766.7477     -798.64932     -1721.6416      1423.0059    
  22884000   251.0977      -356.112       -282.53215     -356.06729      0              4471.4528      46.565727      20.047001      20.857         19470.076      5451.8997      4094.4807      3867.9781      175.9535      -713.61        -519.84633    
  22884500   251.99971     -357.965       -284.12083     -357.92039      0              4392.4186      46.21642       20.047001      20.857         19324.023      5059.904       4439.9789      3677.373      -123.69232      1268.8385     -1181.7552    
  22885000   256.4154      -356.18456     -281.04645     -356.14133      0              4487.1203      46.202454      20.047001      20.857         19318.184      5183.4039      2778.3197      5499.6372     -1646.5544      1815.2529     -227.09395    
  22885500   252.92225     -353.79803     -279.68353     -353.75411      0              4394.8529      46.548204      20.047001      20.857         19462.749      4628.0515      5333.2137      3223.2934     -907.51408     -1221.3074     -266.38835    
  22886000   260.21052     -356.59905     -280.34885     -356.55619      0              4195.4866      46.70658       20.047001      20.857         19528.969      4191.9433      3931.434       4463.0823     -158.73326      426.68287     -1612.3361    
  22886500   253.18587     -355.81385     -281.6221      -355.77407      0              3332.1362      46.071132      20.047001      20.857         19263.276      3728.2685      3917.7126      2350.4274     -542.29669     -63.629582      436.27576    
  22887000   250.40788     -356.29775     -282.92004     -356.25363      0              5876.2649      46.018046      20.047001      20.857         19241.079      9900.1381      3425.8482      4302.8083      253.5766      -1037.8894      565.576      
  22887500   253.88148     -356.68661     -282.29102     -356.64332      0              3031.9638      46.613329      20.047001      20.857         19489.979      2469.3403      4367.3951      2259.156      -1193.7024      481.06705      2538.2109    
  22888000   251.06486     -355.85683     -282.2866      -355.81219      0              2506.0072      46.521621      20.047001      20.857         19451.634      2946.9584      2202.5636      2368.4996      1091.4839     -368.21469     -1413.8556    
  22888500   255.76153     -358.498       -283.55149     -358.45451      0              4174.0879      46.223466      20.047001      20.857         19326.969      3184.2088      5413.4388      3924.6161     -1524.4433     -446.10885      559.60515    
  22889000   253.62186     -358.5154      -284.19589     -358.47089      0              3533.0291      46.257856      20.047001      20.857         19341.348      5748.8364      2943.8501      1906.4008     -188.47693      697.06419      2546.629     
  22889500   262.09656     -361.1281      -284.32522     -361.08432      0              3241.4938      46.376392      20.047001      20.857         19390.911      3954.1708      1221.3724      4548.9381     -237.92935     -2986.9959      596.83774    
  22890000   257.38482     -358.26429     -282.8421      -358.21971      0              4819.1531      46.343902      20.047001      20.857         19377.326      5953.4653      5504.0702      2999.924       749.4239       2137.6695      1257.5301    
  22890500   249.66569     -357.38019     -284.21997     -357.33583      0              5418.1557      46.234528      20.047001      20.857         19331.595      5651.9706      3335.1376      7267.3588      763.92472      678.56809      2865.2551    
  22891000   253.22721     -356.793       -282.58914     -356.74854      0              4070.4645      46.173934      20.047001      20.857         19306.259      3148.1604      4080.3328      4982.9003     -164.68746     -62.628624     -335.84137    
  22891500   259.17357     -354.99001     -279.04367     -354.94566      0              8089.5945      46.106908      20.047001      20.857         19278.234      10446.385      6607.8393      7214.5593     -39.422577     -8.9759955     -667.98032    
  22892000   255.13637     -357.92978     -283.16647     -357.88535      0              3765.05        46.399157      20.047001      20.857         19400.429      3707.954       2630.7343      4956.4618     -251.14998     -800.59764      256.81768    
  22892500   253.46657     -354.19591     -279.9219      -354.15137      0              3497.2017      46.426995      20.047001      20.857         19412.069      2386.7465      5941.8648      2162.9939      915.82488      1071.3496     -590.37265    
  22893000   258.73833     -357.42408     -281.60528     -357.38133      0              4345.4562      46.217177      20.047001      20.857         19324.34       1832.1367      6118.4462      5085.7857     -1199.7962      2079.2435     -1279.2445    
  22893500   259.27699     -356.82034     -280.8437      -356.77678      0              4525.0081      45.985762      20.047001      20.857         19227.58       4740.6704      7051.7552      1782.5987     -120.23458      123.18664      438.42197    
  22894000   259.7337      -356.81424     -280.70376     -356.76972      0              3594.5499      46.232634      20.047001      20.857         19330.803      3826.5616      2500.2897      4456.7984      1106.2695      1213.0891      418.29307    
  22894500   250.94377     -354.26413     -280.72939     -354.22039      0              4474.0998      46.541468      20.047001      20.857         19459.933      3974.6029      7339.3002      2108.3962      53.448419      1041.4842      833.48395    
  22895000   253.6994      -356.62105     -282.27882     -356.57811      0              3594.1971      46.340279      20.047001      20.857         19375.811      3015.1084      4270.3716      3497.1112      822.14978     -0.53904816    -1454.1477    
  22895500   255.82238     -356.67355     -281.70922     -356.62926      0              4835.3254      46.012438      20.047001      20.857         19238.734      4684.9751      5105.2193      4715.782       1055.3455     -2143.9747      529.66621    
  22896000   254.66263     -357.11401     -282.48952     -357.0705       0              4577.8791      46.238643      20.047001      20.857         19333.315      3955.0037      5896.717       3881.9165     -10.067544     -208.81207     -2849.7568    
  22896500   253.49262     -357.85589     -283.57425     -357.81225      0              2466.5069      46.392173      20.047001      20.857         19397.509      4270.3803      537.44824      2591.6923      181.83085     -1265.6957      382.4245     
  22897000   257.81933     -357.08322     -281.53371     -357.03869      0              3588.4094      46.27866       20.047001      20.857         19350.047      5851.0011      1536.0194      3378.2076     -272.37387      1893.4861     -767.92549    
  22897500   259.03158     -358.42081     -282.51607     -358.3764       0              7668.4244      45.923977      20.047001      20.857         19201.747      8966.6561      9059.1247      4979.4925      1112.3681      1214.982       1576.2275    
  22898000   251.67894     -357.94524     -284.19507     -357.90246      0              3701.0931      46.128083      20.047001      20.857         19287.088      4368.4141      4057.8339      2677.0314     -402.8051      -1037.6683     -543.64192    
  22898500   257.14199     -359.07681     -283.72578     -359.03381      0              4119.9498      46.547213      20.047001      20.857         19462.335      5360.2152      2800.0283      4199.6059     -492.95109      1324.8135      453.33838    
  22899000   258.68787     -358.37693     -282.57291     -358.33245      0              6410.2613      46.347718      20.047001      20.857         19378.922      8418.7309      6070.2502      4741.8029     -496.94393     -857.28048      1605.6946    
  22899500   251.26719     -354.60532     -280.9758      -354.56101      0              5706.466       46.232121      20.047001      20.857         19330.588      6648.3552      5876.8951      4594.1476     -1106.3366     -816.86858     -1848.2921    
  22900000   257.17602     -356.40757     -281.04657     -356.36307      0              5405.2427      46.263426      20.047001      20.857         19343.678      8251.6121      3263.7008      4700.4152      268.17487      648.5078       96.250325    
  22900500   260.33109     -356.65899     -280.37346     -356.61452      0              3325.8137      46.402676      20.047001      20.857         19401.901      2906.8574      3821.7948      3248.7889     -1489.1614      881.30732     -202.40685    
  22901000   253.79583     -353.68359     -279.31311     -353.63962      0              6213.2009      46.36366       20.047001      20.857         19385.588      5727.0827      7246.1408      5666.3791     -1536.6368      1746.1537     -162.82496    
  22901500   259.0968      -356.73639     -280.81255     -356.69302      0              5146.736       46.50739       20.047001      20.857         19445.684      5593.1837      5199.6353      4647.3891     -464.46881      908.98328      2059.4152    
  22902000   252.30127     -356.96393     -283.0314      -356.92038      0              5116.973       46.747232      20.047001      20.857         19545.967      4596.7632      5935.5486      4818.6073     -933.66483     -1365.9167      391.24271    
  22902500   259.4281      -356.34632     -280.32539     -356.32309      0              6507.2864      46.349723      20.047001      20.857         19379.76       7616.4349      5961.2601      5944.164      -303.17568      933.17917      824.40181    
  22903000   252.91933     -356.06026     -281.94662     -356.01595      0              5120.7608      46.265515      20.047001      20.857         19344.551      5837.8687      6085.699       3438.7148      202.40908     -475.63892      15.424166    
  22903500   246.27859     -356.20689     -284.0392      -356.16303      0              4705.2674      46.428251      20.047001      20.857         19412.594      4528.0249      5294.463       4293.3141     -329.73453     -341.65517     -817.51067    
  22904000   259.06151     -358.78465     -282.87114     -358.74071      0              5637.9898      46.551474      20.047001      20.857         19464.116      4554.7428      6373.296       5985.9306     -47.732425     -423.64951      1612.6807    
  22904500   258.53014     -356.4378      -280.68001     -356.39418      0              6114.8829      46.193457      20.047001      20.857         19314.422      4155.5944      7257.5389      6931.5153      341.37215     -2013.5863     -474.43745    
  22905000   259.77394     -355.45917     -279.3369      -355.41528      0              2686.5479      46.029777      20.047001      20.857         19245.984      2022.1134      3891.8221      2145.7081     -1083.2067     -169.50918      1975.1028    
  22905500   254.39504     -354.9545      -280.40842     -354.91097      0              2614.825       46.473242      20.047001      20.857         19431.406      3186.266       4191.2602      466.94866     -194.59225      249.67986      219.55504    
  22906000   252.01061     -354.72125     -280.87389     -354.67787      0              3869.9753      46.721707      20.047001      20.857         19535.294      2621.8462      4979.4014      4008.6783      934.39896      700.05889      757.32543    
  22906500   257.51514     -356.26995     -280.80958     -356.22554      0              4331.741       46.491675      20.047001      20.857         19439.113      5986.4687      2610.515       4398.2394     -1361.2125     -1190.0979      81.665464    
  22907000   252.19285     -355.55668     -281.65591     -355.51364      0              4919.3788      46.208161      20.047001      20.857         19320.57       2264.8679      5989.6347      6503.6338      1081.7466     -466.56042     -345.23289    
  22907500   261.67587     -357.05905     -280.37945     -357.01605      0              4064.7406      46.306317      20.047001      20.857         19361.611      7259.909       3565.4461      1368.8668      947.16335     -1366.4824      29.269959    
  22908000   254.46194     -355.57709     -281.01141     -355.53477      0              3812.2851      46.461849      20.047001      20.857         19426.642      4155.9033      4812.2508      2468.7011     -240.38308     -2605.79        5.3746201    
  22908500   254.38827     -353.56205     -279.01796     -353.51878      0              5525.2476      46.247193      20.047001      20.857         19336.89       7765.2331      5975.3816      2835.1281      715.11545      2145.707      -1245.2237    
  22909000   252.06497     -356.59317     -282.72988     -356.55042      0              4918.2347      46.372651      20.047001      20.857         19389.347      5169.347       4464.4851      5120.8719     -539.10174      427.88851      1274.2729    
  22909500   257.14102     -356.06071     -280.70997     -356.01784      0              4762.4369      46.313186      20.047001      20.857         19364.483      8156.3417      1999.197       4131.7721     -803.47452     -442.77419      250.77994    
  22910000   257.38733     -355.8318      -280.40888     -355.78895      0              4383.7841      46.439163      20.047001      20.857         19417.157      1962.1271      5173.9384      6015.2868     -366.06176      643.9937       360.29455    
  22910500   253.94182     -354.68025     -280.26698     -354.6389       0              5319.9671      46.325889      20.047001      20.857         19369.794      5255.7221      6640.0095      4064.1698     -845.46914      2342.2252     -523.27072    
  22911000   267.1316      -355.95055     -277.67225     -355.90613      0              6174.4558      46.305453      20.047001      20.857         19361.25       6278.3779      5934.1335      6310.8558      267.03881      860.63411      1169.0711    
  22911500   254.02097     -355.53631     -281.09985     -355.49255      0              3810.7065      46.34942       20.047001      20.857         19379.633      4849.9762      2136.0971      4446.0462     -571.23807      3220.491      -767.13757    
  22912000   258.06774     -354.42926     -278.80696     -354.38644      0              3649.7013      46.380518      20.047001      20.857         19392.636      4474.5924      2927.1852      3547.3265     -1250.3267      1244.2174      536.73575    
  22912500   253.67467     -357.35217     -283.01719     -357.30951      0              5184.6072      46.40617       20.047001      20.857         19403.362      5637.1107      4587.3932      5329.3177     -682.58675      590.16166      484.4006     
  22913000   255.40414     -355.79295     -280.95117     -355.7488       0              4288.3637      46.107277      20.047001      20.857         19278.389      6612.0981      3068.2298      3184.7632     -1186.1944      972.54084      1837.0847    
  22913500   256.70985     -357.07533     -281.85094     -357.0322       0              5825.701       46.212356      20.047001      20.857         19322.324      6113.2936      5161.3956      6202.4138      202.1134      -517.79128      3466.6754    
  22914000   256.49537     -357.81528     -282.65374     -357.7719       0              4615.7995      46.240438      20.047001      20.857         19334.066      5560.3401      4866.6744      3420.3838     -203.87821      1722.5774     -838.31227    
  22914500   251.67447     -356.12387     -282.37501     -356.0805       0              4809.5615      46.338243      20.047001      20.857         19374.96       5642.7115      4655.2328      4130.7403     -914.30933     -1139.3166     -234.82429    
  22915000   258.13461     -356.90658     -281.26468     -356.8638       0              4969.8642      46.310839      20.047001      20.857         19363.502      4074.2321      6254.782       4580.5786      55.592774      413.2514       716.9023     
  22915500   256.42723     -355.49286     -280.35128     -355.44978      0              4497.1174      46.08873       20.047001      20.857         19270.634      4736.4725      3702.5271      5052.3526      804.03233     -1284.8217      1147.7945    
  22916000   252.34058     -356.21159     -282.26753     -356.16888      0              1799.2676      46.178005      20.047001      20.857         19307.961      459.73691      3244.72        1693.3459      1342.7002      347.02085      2697.542     
  22916500   257.33163     -355.19812     -279.79152     -355.15578      0              6121.2305      46.182765      20.047001      20.857         19309.951      9088.5178      3183.4404      6091.7332     -755.57062     -2747.8979     -936.6043     
  22917000   247.63849     -358.09905     -285.53286     -358.05633      0              2149.9906      46.212245      20.047001      20.857         19322.278      4744.5518      1109.9618      595.4581      -593.15309      890.84396      529.80188    
  22917500   248.09824     -357.94252     -285.24161     -357.89893      0              3673.5711      46.350528      20.047001      20.857         19380.097      2210.7882      4605.7928      4204.1323     -1297.672      -950.05819     -115.34088    
  22918000   254.92826     -357.00177     -282.29944     -356.95772      0              4645.245       46.224117      20.047001      20.857         19327.242      5027.7032      4250.0705      4657.9614     -594.1364      -310.36377     -753.90649    
  22918500   259.87059     -356.41584     -280.26524     -356.37232      0              6527.6645      45.976011      20.047001      20.857         19223.503      7942.1424      4576.0515      7064.7995     -1268.8491      200.99067      2273.6153    
  22919000   258.79176     -356.44546     -280.611       -356.40202      0              4947.3943      46.165688      20.047001      20.857         19302.811      5845.8775      2934.9728      6061.3326      626.72784     -583.92796      473.07988    
  22919500   256.73522     -357.54082     -282.30899     -357.49819      0              3492.5988      46.355966      20.047001      20.857         19382.37       3732.2919      3591.7406      3153.7639     -1136.2211     -499.37478     -397.9605     
  22920000   252.05498     -357.64027     -283.77991     -357.59671      0              2946.3178      46.137461      20.047001      20.857         19291.009      5218.6581      2659.2546      961.04085      170.56802     -956.76644      1458.4654    
  22920500   264.60507     -358.33681     -280.79886     -358.29255      0              4542.5699      46.07204       20.047001      20.857         19263.655      4099.7979      6035.1086      3492.8032      355.24607      1785.4379      1073.0844    
  22921000   251.24816     -359.20999     -285.58605     -359.16716      0              3286.1126      46.362667      20.047001      20.857         19385.172      4136.8871      3290.3912      2431.0594     -404.05172     -232.16839      1761.2841    
  22921500   252.53986     -357.45357     -283.45112     -357.41006      0              3697.3992      46.449889      20.047001      20.857         19421.642      5546.7448      2789.0797      2756.3731      282.03933     -386.02395     -101.25557    
  22922000   251.1643      -355.51221     -281.91284     -355.46848      0              4667.8093      46.187663      20.047001      20.857         19312          7202.1687      3558.6557      3242.6034     -1189.0069      904.9215       1221.4163    
  22922500   252.3257      -355.26913     -281.32944     -355.22607      0              5542.3746      46.190514      20.047001      20.857         19313.192      6036.7109      4556.9228      6033.4902      1141.7019     -1353.9171     -998.86198    
  22923000   256.82385     -356.57038     -281.31258     -356.52723      0              2893.3045      46.417423      20.047001      20.857         19408.067      6380.1003      1851.9224      447.89077      1238.6084     -537.13836      3052.7909    
  22923500   265.05396     -356.36255     -278.69306     -356.31817      0              6104.9212      46.209681      20.047001      20.857         19321.206      6836.3806      4971.1397      6507.2432     -451.98419      615.24044      1298.374     
  22924000   264.63625     -357.76977     -280.22268     -357.72701      0              5398.6015      46.058608      20.047001      20.857         19258.039      7031.7205      4784.9812      4379.1028     -517.79245     -869.7008       1579.4395    
  22924500   251.15024     -356.24967     -282.65442     -356.21163      0              3174.5515      46.491278      20.047001      20.857         19438.947      2080.4045      3808.3559      3634.8942     -383.57287      930.89014     -155.51027    
  22925000   247.78231     -358.91353     -286.3052      -358.87069      0              3846.8928      46.541522      20.047001      20.857         19459.955      4576.8986      4882.2672      2081.5126      17.104363     -966.50046      1148.3781    
  22925500   250.43248     -355.36263     -281.97771     -355.31996      0              5418.2004      45.95209       20.047001      20.857         19213.502      5126.3824      5461.4623      5666.7566     -766.22442      433.73569      973.67582    
  22926000   255.01843     -355.93897     -281.21022     -355.89523      0              5572.6003      46.023745      20.047001      20.857         19243.462      7941.4424      5670.8794      3105.4792     -519.31089     -577.63137     -300.76072    
  22926500   259.60829     -356.40617     -280.33244     -356.36284      0              3352.6376      46.560052      20.047001      20.857         19467.703      3565.4432      3469.2307      3023.2388      844.96911      650.55341      1043.9937    
  22927000   253.30156     -355.85545     -281.6298      -355.81262      0              2648.9206      46.545704      20.047001      20.857         19461.704      3729.4549      2319.2338      1898.073      -590.94017     -1653.5674      834.85963    
  22927500   249.92994     -356.21158     -282.97392     -356.16782      0              6201.5629      46.164792      20.047001      20.857         19302.437      6366.9051      6274.3468      5963.4367     -605.26213      1350.6247     -459.32041    
  22928000   252.87421     -357.36733     -283.2669      -357.32473      0              5480.4367      46.321984      20.047001      20.857         19368.162      6580.2068      4262.9724      5598.131       164.5079      -559.64247      391.36743    
  22928500   254.42932     -354.77798     -280.22186     -354.73543      0              2187.9831      46.404932      20.047001      20.857         19402.844      4464.2551      1073.8977      1025.7966      619.49115     -602.90026     -542.92945    
  22929000   252.7606      -355.77039     -281.70325     -355.72719      0              5241.9595      46.404596      20.047001      20.857         19402.704      6032.032       6100.3571      3593.4894      418.21689     -146.68356      550.80736    
  22929500   256.25885     -356.24233     -281.1501      -356.20202      0              4337.6187      46.41123       20.047001      20.857         19405.478      7732.9273      1537.2988      3742.6301     -1363.0691      1875.1961      226.48562    
  22930000   256.90908     -356.60987     -281.3271      -356.56562      0              4838.7139      46.264087      20.047001      20.857         19343.954      8579.3573      3334.6748      2602.1096     -1054.8202     -1670.5478     -1145.6312    
  22930500   256.87751     -355.53832     -280.2648      -355.49557      0              5969.9527      46.225617      20.047001      20.857         19327.869      4968.0398      7150.9851      5790.8332     -983.51818      1458.3893      1191.8041    
  22931000   245.87642     -354.45901     -282.40916     -354.41585      0              4944.1626      46.162802      20.047001      20.857         19301.605      5409.6587      4589.0053      4833.8237      1190.1773     -579.87417     -1827.968     
  22931500   257.64196     -357.9036      -282.40607     -357.85939      0              5191.665       46.349119      20.047001      20.857         19379.508      4848.3809      4005.0896      6721.5246      732.4729      -839.59543      770.79058    
  22932000   253.7319      -357.76477     -283.41301     -357.72204      0              1106.954       46.415477      20.047001      20.857         19407.253      3453.2512     -0.44747788    -131.94169      294.19964     -372.4878      -104.00058    
[...]
  25638500   261.9845      -356.21343     -279.44339     -356.1919       0              2698.8843      46.279754      20.047001      20.857         19350.505      3473.4159      1718.9628      2904.2743      226.84783      1243.8232     -175.28598    
  25639000   257.58624     -354.30887     -278.82766     -354.29227      0              3262.3707      46.1032        20.047001      20.857         19276.684      3936.3658      2853.8391      2996.9072      161.82202      302.0551      -967.47122    
  25639500   260.06479     -353.71151     -277.50401     -353.71223      0              2503.352       46.145703      20.047001      20.857         19294.455      2232.6545      2848.1596      2429.2418     -306.97983     -1295.5156      1846.5244    
  25640000   264.22427     -355.46119     -278.03483     -355.47543      0              2937.2501      46.321089      20.047001      20.857         19367.788      1905.5668      4137.1269      2769.0566     -326.0375      -868.46952      325.46996    
  25640500   256.93406     -352.20846     -276.91836     -352.22439      0              5012.0712      46.066864      20.047001      20.857         19261.491      5464.7339      4296.9779      5274.5019      508.50792      1964.1422      892.10109    
  25641000   263.61675     -352.49385     -275.24551     -352.49493      0              5313.8417      45.986743      20.047001      20.857         19227.991      5010.5111      5389.1464      5541.8676     -945.3423       779.38795      157.00872    
  25641500   257.48835     -355.8107      -280.35818     -355.82256      0              6288.6147      46.409445      20.047001      20.857         19404.731      8769.2329      3888.384       6208.2272      13.516038      56.797632      499.07651    
  25642000   249.17228     -355.19744     -282.18181     -355.19855      0              5847.3745      46.608548      20.047001      20.857         19487.98       4209.6655      4776.9539      8555.504       178.90209     -485.54121     -899.79916    
  25642500   258.54851     -355.97194     -280.20876     -355.97424      0              4883.6536      46.2098        20.047001      20.857         19321.255      4710.1105      3822.8592      6117.991       74.847495     -797.47374      340.92055    
  25643000   245.40301     -356.5683      -284.65718     -356.57922      0              5335.5383      46.098931      20.047001      20.857         19274.899      5145.0518      5050.1118      5811.4513     -1399.3028     -2.5606603      130.19689    
  25643500   252.44187     -356.41916     -282.44543     -356.41065      0              6932.0621      46.357937      20.047001      20.857         19383.194      5154.1395      9100.8241      6541.2227      1008.2715      52.043201      1451.9326    
  25644000   246.69998     -355.57309     -283.28192     -355.58938      0              5796.7159      46.469123      20.047001      20.857         19429.684      4848.7865      7055.5156      5485.8455     -9.4548409     -181.67803     -341.39579    
  25644500   249.5164      -356.14272     -283.02624     -356.13041      0              6548.4774      46.217105      20.047001      20.857         19324.31       7373.4445      5939.0874      6332.9003     -121.7633      -703.12582      313.32537    
  25645000   253.27769     -356.70316     -282.4845      -356.69425      0              6500.1765      46.085835      20.047001      20.857         19269.423      7073.2749      7548.3728      4878.8817     -577.76241      82.101277      229.32433    
  25645500   250.17891     -356.92813     -283.61752     -356.9305       0              4082.4815      46.163749      20.047001      20.857         19302          5400.5194      2734.5392      4112.3859      347.27382      188.1982      -444.87906    
  25646000   253.34053     -357.39142     -283.15435     -357.37605      0              2748.7231      46.272454      20.047001      20.857         19347.453      3179.0174      2795.7187      2271.4331     -1248.4925      1521.8586      1385.3902    
  25646500   257.72661     -353.91954     -278.3972      -353.91253      0              6313.3641      46.116009      20.047001      20.857         19282.039      7751.2633      5326.1971      5862.632      -369.04804      695.6119       767.89731    
  25647000   254.17797     -352.55658     -278.07411     -352.55863      0              4363.4876      46.217011      20.047001      20.857         19324.27       5361.6283      5125.117       2603.7174     -529.89523     -370.222        392.41961    
  25647500   249.53666     -354.7539      -281.63149     -354.74629      0              3985.9822      46.188923      20.047001      20.857         19312.526      5795.2328      2805.4088      3357.305      -1840.607      -437.81161      2877.7047    
  25648000   252.48662     -352.66329     -278.67644     -352.66523      0              2623.8209      46.080139      20.047001      20.857         19267.041      5779.8112     -227.77632      2319.4279      2588.5182      403.4516      -192.02129    
  25648500   261.59007     -351.76183     -275.10738     -351.77595      0              4843.0953      46.077925      20.047001      20.857         19266.116      6195.0454      4356.9983      3977.242      -585.59055      697.59144      329.36764    
  25649000   255.74145     -351.20808     -276.26746     -351.20731      0              4694.7252      46.525552      20.047001      20.857         19453.278      5090.4323      5520.0475      3473.6956     -1544.3859     -221.06275     -596.45775    
  25649500   252.06288     -354.59602     -280.73334     -354.59692      0              3815.539       46.618412      20.047001      20.857         19492.104      2458.4884      4255.6559      4732.4728      9.9252742     -1036.9689      681.20137    
  25650000   246.67225     -352.67819     -280.39515     -352.69397      0              3138.9211      46.309234      20.047001      20.857         19362.831      3858.6804      3582.5408      1975.5422     -1173.5374      745.50051     -1557.9264    
  25650500   250.80606     -351.67964     -278.18525     -351.67639      0              4412.7376      46.257718      20.047001      20.857         19341.291      6192.1433      3203.6233      3842.4462      805.16819      366.77173      1296.676     
  25651000   254.93735     -353.88391     -279.17892     -353.89404      0              4697.3533      46.562114      20.047001      20.857         19468.565      5665.0329      3668.6855      4758.3416      355.55245      732.78907     -445.21501    
  25651500   251.0859      -352.77181     -279.19542     -352.77392      0              3931.9319      46.449624      20.047001      20.857         19421.531      4757.62        4271.2256      2766.95       -379.56042      181.09205      1609.2232    
  25652000   250.6158      -353.88992     -280.45129     -353.88556      0              4350.5486      46.24153       20.047001      20.857         19334.522      6242.8382      1925.0021      4883.8053     -65.520845     -241.01429      654.72303    
  25652500   258.11903     -354.42961     -278.79228     -354.42348      0              5487.7601      46.174823      20.047001      20.857         19306.631      5277.2502      6344.8217      4841.2083     -374.0071      -1493.8738      47.200287    
  25653000   251.95645     -354.38118     -280.54969     -354.36785      0              4018.9956      46.183838      20.047001      20.857         19310.4        3416.3373      3430.9533      5209.6963     -57.729125     -154.29666      848.30881    
  25653500   251.04715     -354.51828     -280.95324     -354.50477      0              5720.078       46.327465      20.047001      20.857         19370.454      4832.212       6356.2621      5971.7599      1314.5089     -1786.8415     -1030.7743    
  25654000   261.17052     -353.76377     -277.23226     -353.77183      0              6394.893       46.080393      20.047001      20.857         19267.148      6213.6643      5818.5084      7152.5064      511.00253     -136.82973      236.78201    
  25654500   257.20092     -355.03459     -279.6663      -355.01585      0              4183.4437      45.964381      20.047001      20.857         19218.641      7904.1541      2573.7401      2072.4368      783.83018     -358.41315      297.85814    
  25655000   256.40084     -356.18082     -281.04698     -356.14631      0              6022.649       46.206808      20.047001      20.857         19320.004      6072.2931      7510.6728      4484.9812      932.16477      931.01275      2014.3335    
  25655500   251.50665     -354.4069      -280.70722     -354.39197      0              3446.1102      46.425966      20.047001      20.857         19411.639      4667.6167      2688.8928      2981.8213     -1385.4144      742.85839     -674.87891    
  25656000   254.26295     -356.14448     -281.6371      -356.12699      0              3248.2074      46.215526      20.047001      20.857         19323.649      3505.0566      4077.1071      2162.4586      489.59339      863.14171      2433.1798    
  25656500   252.45269     -358.65335     -284.67644     -358.62492      0              3875.9919      45.849906      20.047001      20.857         19170.776      3261.4765      4812.3234      3554.1759      305.21865      839.4807      -879.09099    
  25657000   256.13261     -354.38617     -279.33092     -354.35592      0              3667.3137      45.939743      20.047001      20.857         19208.339      5321.9001      2134.8148      3545.2263     -292.35299      1350.1931     -588.33313    
  25657500   249.34499     -354.12644     -281.06019     -354.10699      0              1372.9821      46.53357       20.047001      20.857         19456.63      -401.54741      3473.3143      1047.1793      361.15751      555.87682     -442.97819    
  25658000   246.06541     -355.67191     -283.56669     -355.66911      0              3688.5853      46.526317      20.047001      20.857         19453.597      6331.8323      2807.4912      1926.4324     -103.72563      940.80247      1850.8372    
  25658500   248.06367     -354.00871     -281.31793     -354.00542      0              6962.0674      46.160195      20.047001      20.857         19300.514      9432.3369      5140.2789      6313.5865     -1378.2999      570.77578     -2318.7235    
  25659000   252.04522     -358.46301     -284.60551     -358.45464      0              2991.775       46.158603      20.047001      20.857         19299.849      1853.1237      3895.3137      3226.8876     -1023.0573      110.15118      308.42143    
  25659500   255.65534     -356.5834      -281.66802     -356.58707      0              5636.9716      46.049576      20.047001      20.857         19254.262      6755.7704      3476.5004      6678.644      -1465.9193     -923.02729     -444.69874    
  25660000   261.53957     -355.86186     -279.2222      -355.84547      0              4560.0799      46.091279      20.047001      20.857         19271.699      5049.3228      5359.6428      3271.2741     -795.61319      577.28703      937.36215    
  25660500   255.16621     -353.95391     -279.18185     -353.94362      0              6391.1807      46.185017      20.047001      20.857         19310.893      6587.4406      7747.2505      4838.8511     -1752.0707     -326.8506       439.37383    
  25661000   258.04567     -355.32964     -279.7138      -355.33149      0              4696.8124      46.504823      20.047001      20.857         19444.611      3228.5484      6188.1019      4673.7869      496.10709      1618.548       415.40372    
  25661500   251.49432     -355.67264     -281.97657     -355.66703      0              3341.0901      46.302282      20.047001      20.857         19359.924      4861.2368      1656.196       3505.8373     -1173.6267     -248.45859     -345.55357    
  25662000   254.95473     -355.11551     -280.40542     -355.09374      0              4164.0871      45.806714      20.047001      20.857         19152.717      6248.5024      3923.667       2320.092       208.99368      1515.9332      44.918343    
  25662500   258.70746     -355.80624     -279.99648     -355.79996      0              3287.821       46.300059      20.047001      20.857         19358.995      2252.1381      3400.8904      4210.4346      587.50046     -214.53523      450.31313    
  25663000   250.47477     -356.37634     -282.97904     -356.3861       0              3032.0935      46.700374      20.047001      20.857         19526.375      3313.1139      2669.8513      3113.3152     -406.02182      1872.9814      212.6807     
  25663500   259.73171     -355.92248     -279.81258     -355.8905       0              4747.8664      46.190328      20.047001      20.857         19313.114      4850.0837      6064.8665      3328.649      -838.13331      209.27925      748.71917    
  25664000   256.88382     -351.13958     -275.8642      -351.13542      0              4551.8725      46.044017      20.047001      20.857         19251.938      5589.6408      3894.1719      4171.8049      1096.8057      1003.6568      808.71756    
  25664500   255.21805     -352.8854      -278.09815     -352.87972      0              3836.2835      46.167747      20.047001      20.857         19303.672      6050.8678      3595.3381      1862.6445      147.85838     -178.41136      1039.4508    
  25665000   254.21111     -355.34363     -280.85145     -355.3368       0              2480.9922      46.223277      20.047001      20.857         19326.891      1155.3298      4382.2945      1905.3522      1093.4251      71.858046     -2251.4275    
  25665500   253.31935     -356.72437     -282.4935      -356.71458      0              5667.6582      46.276993      20.047001      20.857         19349.35       4760.6576      8338.4804      3903.8365     -452.86195      733.52684      1053.9647    
  25666000   257.07524     -355.20286     -279.87139     -355.205        0              3790.1866      46.338891      20.047001      20.857         19375.231      6553.5203      2676.3404      2140.6992     -83.056203      1464.2281     -2504.7717    
  25666500   259.5552      -356.45587     -280.39769     -356.45724      0              3833.5482      46.360121      20.047001      20.857         19384.108      3243.3819      5153.738       3103.5246     -350.20841      381.2855       1134.9314    
  25667000   250.20882     -356.72033     -283.40095     -356.72084      0              5432.0217      46.151517      20.047001      20.857         19296.886      7668.1916      5774.6913      2853.1822     -142.95836     -252.27925     -190.3005     
  25667500   252.34453     -356.43705     -282.49184     -356.39889      0              5237.5988      45.827685      20.047001      20.857         19161.486      6300.1281      3388.9377      6023.7305     -606.31424      165.27075     -1750.7394    
  25668000   261.10951     -357.05249     -280.53885     -357.05439      0              2452.3106      46.024077      20.047001      20.857         19243.601      3514.5988      2869.1622      973.1708      -942.38992     -1449.07       -337.02917    
  25668500   263.90371     -356.46182     -279.12939     -356.46673      0              5575.2096      46.226139      20.047001      20.857         19328.087      6664.5139      4489.8921      5571.2228     -543.73013      82.101076     -163.42667    
  25669000   258.22548     -354.5193      -278.85077     -354.5217       0              4349.8071      46.304051      20.047001      20.857         19360.664      2604.6058      4475.5413      5969.2741     -282.16467      1972.288       884.15424    
  25669500   258.30292     -356.33338     -280.64217     -356.32797      0              4515.0287      46.076753      20.047001      20.857         19265.626      5593.7061      5231.7432      2719.6368     -434.69239      1328.076       46.082049    
  25670000   257.00024     -354.7298      -279.42031     -354.73954      0              5387.1727      46.165093      20.047001      20.857         19302.563      6299.8946      4041.7603      5819.8632     -448.23118      1179.7978      665.87941    
  25670500   244.85493     -353.61964     -281.86913     -353.6353       0              3905.9384      46.323736      20.047001      20.857         19368.894      4446.7599      3853.4286      3417.6267     -1220.8096      2221.1348      653.41188    
  25671000   258.73016     -356.0881      -280.27169     -356.09769      0              7736.0676      46.214205      20.047001      20.857         19323.097      7163.8607      8544.8615      7499.4807     -1175.5455      1513.4842     -1831.4124    
  25671500   247.24093     -355.57775     -283.12806     -355.56663      0              4817.1804      46.108707      20.047001      20.857         19278.987      3467.0079      5841.704       5142.8294     -1706.2636      97.387894      216.5767     
  25672000   253.25088     -356.74541     -282.5346      -356.75437      0              3934.363       46.472191      20.047001      20.857         19430.967      3412.8543      5292.7877      3097.4471     -1413.5823     -293.40489      400.326      
  25672500   254.10158     -356.00598     -281.5459      -356.00242      0              6543.2184      46.296893      20.047001      20.857         19357.671      7028.8905      5717.6152      6883.1494      179.73497     -150.08848      610.54068    
  25673000   261.20345     -356.29456     -279.75339     -356.28324      0              4851.1364      46.06772       20.047001      20.857         19261.849      5658.9774      4116.2851      4778.1466     -101.13876      2093.8314     -1566.4932    
  25673500   257.33777     -356.66618     -281.25779     -356.66284      0              4201.3004      46.35631       20.047001      20.857         19382.514      6035.2224      2376.5893      4192.0894      175.17122      577.33726      881.11505    
  25674000   256.36639     -355.94622     -280.82247     -355.94413      0              4298.4731      46.453454      20.047001      20.857         19423.132      3700.2227      4838.7298      4356.4666     -574.05303     -1007.6714     -1856.9934    
  25674500   248.35169     -355.81075     -283.03557     -355.79131      0              6241.8611      46.158677      20.047001      20.857         19299.88       10514.759      4539.2252      3671.599       620.82178      981.55264      556.29977    
  25675000   253.13127     -355.17139     -280.99564     -355.16612      0              4793.3854      46.019759      20.047001      20.857         19241.796      6783.0841      4866.579       2730.4932     -818.57563      63.43395      -202.70319    
  25675500   251.03051     -353.67737     -280.11721     -353.66709      0              3916.9598      46.318561      20.047001      20.857         19366.731      5937.6805      2145.5868      3667.6122     -888.01953     -1092.7441     -2124.5751    
  25676000   251.99768     -358.229       -284.38543     -358.22058      0              3759.3618      46.429418      20.047001      20.857         19413.082      4455.165       6101.0767      721.84369     -697.04909      763.77597      309.4673     
  25676500   249.04334     -356.79041     -283.81255     -356.77012      0              3861.5126      46.170382      20.047001      20.857         19304.774      3774.3872      3720.1835      4089.9671     -243.01616      499.27715      393.88631    
  25677000   258.79415     -354.55404     -278.71888     -354.54613      0              4327.8684      45.995319      20.047001      20.857         19231.577      4584.3728      4842.6058      3556.6267      1178.2272      947.25165      541.18489    
ERROR on proc 0: Cannot open restart file restart.lmp.0: Permission denied (../write_restart.cpp:233)
Last command: run             40000000 upto
