LAMMPS (23 Jun 2022)
echo both

include		in.partitions
variable        pid world 0
include		in.temp
variable	temperature equal 255.0
variable        tempDamp equal 0.100 # this is 0.1 ps
include		in.pressure
variable        pressure equal 5066.25
variable        pressureDamp equal 1.0 #this is 1ps
include		in.seed
variable        seed world 745823

units           metal
atom_style	full
read_restart	restart.lmp.${pid}
read_restart	restart.lmp.0
Reading restart file ...
  restart file = 23 Jun 2022, LAMMPS = 23 Jun 2022
  restoring atom style full from restart
  orthogonal box = (0.58583126 0 0) to (46.864868 20.047001 20.857)
  4 by 1 by 1 MPI processor grid
Summary of lammps deepmd module ...
  >>> Info of deepmd-kit:
  installed to:       /u/sigbjobo/software/DEEPMD_FROM_SOURCE/deepmd-kit/install
  source:             v2.1.3
  source branch:       master
  source commit:      5a32c49
  source commit at:   2022-07-01 09:52:58 +0800
  surpport model ver.:1.1 
  build float prec:   double
  build with tf inc:  /u/sigbjobo/software/DEEPMD_FROM_SOURCE/tensorflow/install/include;/u/sigbjobo/software/DEEPMD_FROM_SOURCE/tensorflow/install/include
  build with tf lib:  /u/sigbjobo/software/DEEPMD_FROM_SOURCE/tensorflow/install/lib/libtensorflow_cc.so;/u/sigbjobo/software/DEEPMD_FROM_SOURCE/tensorflow/install/lib/libtensorflow_framework.so
  set tf intra_op_parallelism_threads: 0
  set tf inter_op_parallelism_threads: 0
  >>> Info of lammps module:
  use deepmd-kit at:  /u/sigbjobo/software/DEEPMD_FROM_SOURCE/deepmd-kit/install
  source:             v2.1.3
  source branch:      master
  source commit:      5a32c49
  source commit at:   2022-07-01 09:52:58 +0800
  build float prec:   double
  build with tf inc:  /u/sigbjobo/software/DEEPMD_FROM_SOURCE/tensorflow/install/include;/u/sigbjobo/software/DEEPMD_FROM_SOURCE/tensorflow/install/include
  build with tf lib:  /u/sigbjobo/software/DEEPMD_FROM_SOURCE/tensorflow/install/lib/libtensorflow_cc.so;/u/sigbjobo/software/DEEPMD_FROM_SOURCE/tensorflow/install/lib/libtensorflow_framework.so
  restoring pair style deepmd from restart
  2268 atoms
Finding 1-2 1-3 1-4 neighbors ...
  special bond factors lj:    0        0        0       
  special bond factors coul:  0        0        0       
     0 = max # of 1-2 neighbors
     0 = max # of 1-3 neighbors
     0 = max # of 1-4 neighbors
     1 = max # of special neighbors
  special bonds CPU = 0.000 seconds
  read_restart CPU = 0.007 seconds
include 	in.setup
variable	out_freq equal 500
variable	out_freq2 equal 1000
variable	out_freq3 equal 5000

timestep        0.0005

neigh_modify    delay 7 every 1

include         in.deepmd
# This is deepMD model

# create groups ###
#group ox type 2
#group hy type 1

mass 2 15.999
mass 1 1.008

pair_style      deepmd ../graph.pb
pair_coeff      * *

bond_style      none
angle_style     none
dihedral_style  none
improper_style  none
neigh_modify exclude none


neighbor        2.0 bin
neigh_modify    every 10 delay 0 check no

thermo          ${out_freq}
thermo          500
thermo_style 	custom step temp pe etotal epair emol press lx ly lz vol pxx pyy pzz pxy pxz pyz
#thermo_modify	flush yes
restart 	${out_freq} restart.lmp.${pid} restart2.lmp.${pid}
restart 	500 restart.lmp.${pid} restart2.lmp.${pid}
restart 	500 restart.lmp.0 restart2.lmp.${pid}
restart 	500 restart.lmp.0 restart2.lmp.0

include		in.dump
dump            myDump all atom ${out_freq3} dump.water.${pid}
dump            myDump all atom 5000 dump.water.${pid}
dump            myDump all atom 5000 dump.water.0
dump            myDump2 all dcd ${out_freq2} dump.dcd.${pid}
dump            myDump2 all dcd 1000 dump.dcd.${pid}
dump            myDump2 all dcd 1000 dump.dcd.0
dump_modify     myDump append yes
dump_modify     myDump2 append yes


timer           timeout 23:50:00 every 1000
New timer settings: style=normal  mode=nosync  timeout=23:50:00

fix             1 all plumed plumedfile plumed.dat outfile plumed.out
fix             3 all nph x ${pressure} ${pressure} ${pressureDamp}
fix             3 all nph x 5066.25 ${pressure} ${pressureDamp}
fix             3 all nph x 5066.25 5066.25 ${pressureDamp}
fix             3 all nph x 5066.25 5066.25 1
Resetting global fix info from restart file:
  fix style: nph, fix ID: 3
fix             4 all temp/csvr ${temperature} ${temperature} ${tempDamp} ${seed}
fix             4 all temp/csvr 255 ${temperature} ${tempDamp} ${seed}
fix             4 all temp/csvr 255 255 ${tempDamp} ${seed}
fix             4 all temp/csvr 255 255 0.1 ${seed}
fix             4 all temp/csvr 255 255 0.1 745823
Resetting global fix info from restart file:
  fix style: temp/csvr, fix ID: 4

run             40000000 upto

CITE-CITE-CITE-CITE-CITE-CITE-CITE-CITE-CITE-CITE-CITE-CITE-CITE

Your simulation uses code contributions which should be cited:

- USER-DEEPMD package:

@article{Wang_ComputPhysCommun_2018_v228_p178,
  author = {Wang, Han and Zhang, Linfeng and Han, Jiequn and E, Weinan},
  doi = {10.1016/j.cpc.2018.03.016},
  url = {https://doi.org/10.1016/j.cpc.2018.03.016},
  year = 2018,
  month = {jul},
  publisher = {Elsevier {BV}},
  volume = 228,
  journal = {Comput. Phys. Commun.},
  title = {{DeePMD-kit: A deep learning package for many-body potential energy representation and molecular dynamics}},
  pages = {178--184}
}

CITE-CITE-CITE-CITE-CITE-CITE-CITE-CITE-CITE-CITE-CITE-CITE-CITE

Generated 0 of 1 mixed pair_coeff terms from geometric mixing rule
All restart file global fix info was re-assigned
Neighbor list info ...
  update every 10 steps, delay 0 steps, check no
  max neighbors/atom: 2000, page size: 100000
  master list distance cutoff = 8
  ghost atom cutoff = 8
  binsize = 4, bins = 12 6 6
  1 neighbor lists, perpetual/occasional/extra = 1 0 0
  (1) pair deepmd, perpetual
      attributes: full, newton on
      pair build: full/bin
      stencil: full/bin/3d
      bin: standard
Per MPI rank memory allocation (min/avg/max) = 6.185 | 6.187 | 6.189 Mbytes
   Step          Temp          PotEng         TotEng         E_pair         E_mol          Press            Lx             Ly             Lz           Volume          Pxx            Pyy            Pzz            Pxy            Pxz            Pyz      
  25724000   253.32556     -356.09868     -281.866       -356.09868      0              5336.0263      46.279036      20.047001      20.857         19350.205      5762.8891      4812.0674      5433.1223     -120.91242      391.9844      -483.0685     
  25724500   256.67246     -354.10634     -278.8929      -354.07989      0              4545.8577      46.156743      20.047001      20.857         19299.071      5574.254       3923.0297      4140.2893      1028.7346     -327.31063      2438.1949    
  25725000   253.72953     -353.78559     -279.43453     -353.7624       0              3811.3831      46.109146      20.047001      20.857         19279.17       5343.0821      5239.2963      851.77108      731.19803      946.15953     -33.962422    
  25725500   255.99571     -355.99105     -280.97592     -355.95717      0              6981.0418      46.207683      20.047001      20.857         19320.37       7700.7069      8815.3395      4427.079       1350.7071      1156.4723     -249.67115    
  25726000   255.44337     -355.67177     -280.8185      -355.63369      0              5419.1457      46.263505      20.047001      20.857         19343.711      6722.1892      4370.0758      5165.1719      1758.7107     -1275.8176      962.41078    
  25726500   251.70749     -354.62233     -280.86379     -354.58303      0              5473.8352      46.370759      20.047001      20.857         19388.556      4493.8112      5648.8012      6278.8933      826.58967     -523.07957      152.57493    
  25727000   259.37531     -354.81104     -278.80558     -354.77407      0              4070.7693      46.252293      20.047001      20.857         19339.023      5875.6916      3744.3525      2592.2637     -204.34579      234.56678      409.71102    
  25727500   256.86906     -356.249       -280.97795     -356.21445      0              5505.4631      46.112333      20.047001      20.857         19280.503      6415.1851      5373.691       4727.5133     -733.89316      519.01871      429.03274    
  25728000   258.34682     -354.30262     -278.59854     -354.27237      0              2987.171       46.105057      20.047001      20.857         19277.46       4251.8545      1635.1506      3074.508       1996.7911     -1318.2208     -2169.66      
  25728500   255.35459     -354.30988     -279.48262     -354.26964      0              1784.6179      46.369961      20.047001      20.857         19388.222      1734.3386      1401.2492      2218.2658      997.37976     -241.56313      393.17444    
  25729000   253.61968     -353.66147     -279.3426      -353.622        0              4779.0892      46.277853      20.047001      20.857         19349.71       4374.3402      1796.2584      8166.6689     -54.424361      2291.4235     -2414.848     
  25729500   262.72688     -353.86004     -276.87246     -353.82421      0              6842.591       46.092381      20.047001      20.857         19272.16       8628.7975      7583.5195      4315.4561     -687.53521     -1069.9908      1544.5353    
  25730000   256.07415     -355.30528     -280.26717     -355.26762      0              3552.2671      46.448751      20.047001      20.857         19421.166      4184.9309      4813.7368      1658.1336      2074.551       141.69199      245.47934    
  25730500   257.51264     -353.8967      -278.43707     -353.86431      0              3359.6396      46.459058      20.047001      20.857         19425.475      4089.4417      3606.7921      2382.685       947.17166     -1101.3007     -439.93447    
  25731000   248.12114     -355.08478     -282.37716     -355.0492       0              3542.8422      46.074877      20.047001      20.857         19264.841      3818.8446      4195.0045      2614.6774      1332.0826      245.28639     -833.51049    
  25731500   247.84911     -353.27224     -280.64433     -353.25073      0              3951.0821      46.183802      20.047001      20.857         19310.385      3851.1222      4866.1591      3135.9651      1371.9217      506.17314      305.94977    
  25732000   262.2146      -353.25736     -276.41989     -353.21747      0              3745.7643      46.421036      20.047001      20.857         19409.578      3696.5278      3809.9898      3730.7754      601.87169     -201.2048      -421.45896    
  25732500   252.92377     -350.49671     -276.38177     -350.46035      0              3467.6573      46.206331      20.047001      20.857         19319.805      2942.3617      5292.4554      2168.1549      1441.7872     -172.82884      1233.6634    
  25733000   256.85275     -354.18821     -278.92194     -354.14842      0              6618.8668      45.883277      20.047001      20.857         19184.73       6211.1916      7789.2152      5856.1935     -35.852703     -667.0665       39.863148    
  25733500   256.11227     -352.71662     -277.66734     -352.67564      0              4615.4106      46.196361      20.047001      20.857         19315.636      5005.9946      6561.5431      2278.6942      725.83835      238.34132      2267.0117    
  25734000   254.29486     -354.98023     -280.46351     -354.93954      0              4185.2869      46.862566      20.047001      20.857         19594.19       3596.0154      4966.7738      3993.0715     -37.300223      143.54719      953.81526    
  25734500   255.6832      -351.88113     -276.95758     -351.84389      0              3274.0953      46.574463      20.047001      20.857         19473.728      2890.1594      3742.2378      3189.8887      702.69122      136.20622     -1081.4028    
  25735000   258.94467     -352.47194     -276.59268     -352.43177      0              7603.871       46.067824      20.047001      20.857         19261.892      10102.721      7952.9066      4755.9857     -375.42494     -24.001887     -2581.3372    
  25735500   253.81184     -349.47821     -275.10303     -349.44475      0              3135.6484      46.304741      20.047001      20.857         19360.952      5077.6989      2116.4452      2212.8011      1876.9236      739.8498       1278.9114    
  25736000   257.97054     -351.04977     -275.45595     -351.01033      0              2876.5494      46.492772      20.047001      20.857         19439.572      3432.9882      1224.8531      3971.807      -1137.4234      20.407402      2100.7727    
  25736500   254.93844     -355.098       -280.39269     -355.05675      0              4796.6981      46.043784      20.047001      20.857         19251.841      4737.328       5069.1897      4583.5767     -696.84642      498.17391     -1661.2796    
  25737000   254.42906     -355.395       -280.83895     -355.35532      0              3129.6173      46.090091      20.047001      20.857         19271.203      5392.8238      799.49963      3196.5285     -140.68959      972.30741      68.699701    
  25737500   254.49257     -354.08853     -279.51388     -354.04886      0              4483.8719      46.312618      20.047001      20.857         19364.246      3973.8169      4058.5822      5419.2164     -830.49812     -658.63772     -1379.0408    
  25738000   251.7817      -355.63712     -281.85683     -355.59731      0              6874.544       46.127206      20.047001      20.857         19286.721      8029.7436      6058.9934      6534.8951     -985.32807     -1218.5091      2498.3225    
  25738500   256.02764     -352.82194     -277.79745     -352.78239      0              4610.2358      46.058467      20.047001      20.857         19257.98       8245.1051      2174.796       3410.8062     -251.49809      984.407       -1301.1966    
  25739000   252.44345     -354.21633     -280.24213     -354.17801      0              3282.1138      46.265827      20.047001      20.857         19344.682      5234.7696      1593.9358      3017.6359     -2017.4337     -1095.6282      573.32535    
  25739500   242.08032     -353.99059     -283.05313     -353.95101      0              4079.082       46.17729       20.047001      20.857         19307.662      4215.22        6019.4432      2002.5829     -1346.6921      1826.9887      1664.0797    
  25740000   257.15159     -353.90593     -278.5521      -353.87071      0              4107.8445      45.986668      20.047001      20.857         19227.959      5445.3924      3030.0362      3848.1048     -944.99628      40.79489       734.83968    
  25740500   251.63079     -354.28217     -280.54611     -354.24029      0              5935.085       45.828009      20.047001      20.857         19161.621      5908.8533      6058.9866      5837.4151      4.1250184     -134.92687     -1108.7469    
  25741000   252.34524     -354.82308     -280.87766     -354.78479      0              3910.3892      45.990402      20.047001      20.857         19229.52       2874.1027      3939.1675      4917.8974     -945.95784     -42.064652     -423.24918    
  25741500   255.37903     -354.7864      -279.95198     -354.74698      0              4198.3332      46.068291      20.047001      20.857         19262.088      4527.0393      5076.4888      2991.4715      44.592726      608.04329     -669.19366    
  25742000   253.01966     -355.55762     -281.41457     -355.51789      0              5992.0202      45.911992      20.047001      20.857         19196.736      8026.3512      3915.4983      6034.211      -177.42618     -932.27823      294.77166    
  25742500   254.57453     -355.99114     -281.39247     -355.94935      0              3590.8432      46.10628       20.047001      20.857         19277.971      4314.38        3589.6912      2868.4585     -362.16172      104.41291     -934.49506    
  25743000   251.75541     -357.60471     -283.83213     -357.57566      0              5533.5756      46.26219       20.047001      20.857         19343.161      4674.7902      6458.5532      5467.3832     -1.9497988     -736.4344      -2518.2363    
  25743500   248.08189     -356.87913     -284.18301     -356.86531      0              6013.9814      45.975036      20.047001      20.857         19223.096      5714.7388      8241.0984      4086.1071      1167.299      -556.32654     -811.66514    
  25744000   255.00782     -356.69191     -281.96627     -356.65218      0              5428.9928      45.853303      20.047001      20.857         19172.197      3766.0633      7900.3961      4620.5191     -497.63024     -2282.0217      228.53089    
  25744500   253.50808     -356.10185     -281.81568     -356.06012      0              4125.4175      45.774662      20.047001      20.857         19139.315      5019.4415      4257.3109      3099.5002      1873.7437     -724.12164     -234.67183    
  25745000   256.15349     -355.39807     -280.33671     -355.35614      0              6114.6588      46.024193      20.047001      20.857         19243.649      7269.3886      3165.8914      7908.6963     -126.23074     -148.31726     -901.31069    
  25745500   249.09256     -353.71564     -280.72336     -353.67603      0              4433.9493      46.43485       20.047001      20.857         19415.354      4780.7918      4306.0784      4214.9776     -152.09778      381.11814      1013.2011    
  25746000   253.36892     -353.45626     -279.21087     -353.41505      0              3523.5965      46.094411      20.047001      20.857         19273.009      5120.79        3223.8912      2226.1083      1597.8215     -1559.9977     -93.64674     
  25746500   255.77364     -355.92086     -280.97081     -355.8788       0              4681.7002      45.768193      20.047001      20.857         19136.611      5527.6419      4716.6097      3800.8491     -762.76178     -601.03778     -168.08909    
  25747000   255.11935     -357.16617     -282.40785     -357.12511      0              4834.9191      45.93841       20.047001      20.857         19207.782      6960.9713      4126.1368      3417.6492      39.451344     -776.1467       561.1063     
  25747500   261.47611     -353.87494     -277.25388     -353.83527      0              4704.3861      46.335089      20.047001      20.857         19373.641      4772.4265      5221.5174      4119.2144      1040.2945     -244.46451      698.32001    
  25748000   260.40057     -353.78587     -277.47997     -353.75111      0              4072.9803      46.407125      20.047001      20.857         19403.761      3915.7855      4361.3386      3941.8167      290.0137      -405.39903      121.94836    
  25748500   262.7172      -355.52356     -278.53882     -355.48538      0              4521.4191      46.061886      20.047001      20.857         19259.41       5560.3233      3294.2821      4709.652      -458.76068     -831.34114     -258.6068     
  25749000   250.08753     -355.13317     -281.84933     -355.09308      0              3700.3886      46.002446      20.047001      20.857         19234.556      6232.2068      2969.1316      1899.8274      295.44127     -490.26926      1346.865     
  25749500   257.81071     -354.53295     -278.98597     -354.4924       0              3024.5786      46.066132      20.047001      20.857         19261.185      4506.4977      101.73265      4465.5055      884.19342     -707.17805     -1350.2099    
  25750000   256.41855     -353.30743     -278.16839     -353.26987      0              7298.1472      46.120693      20.047001      20.857         19283.998      5131.3328      7939.16        8823.9487      886.62594      486.17462     -802.13092    
  25750500   245.86473     -354.64765     -282.60123     -354.61144      0              4775.658       46.248023      20.047001      20.857         19337.237      4851.6426      4979.843       4495.4883     -257.62207     -709.8623       1054.2854    
  25751000   252.92137     -356.83452     -282.72027     -356.80112      0              3315.87        46.468266      20.047001      20.857         19429.325      3499.8532      3407.7459      3040.0111      748.69724     -298.5427      -155.44406    
  25751500   253.67642     -354.13861     -279.80311     -354.10504      0              4691.3811      46.476247      20.047001      20.857         19432.662      5429.3761      3865.2188      4779.5483      557.19746     -795.1767      -155.39193    
  25752000   256.76125     -354.45092     -279.21146     -354.42989      0              5365.3454      46.102667      20.047001      20.857         19276.461      8386.7211      4664.5535      3044.7615      331.50556     -2395.4712     -217.37258    
  25752500   253.60288     -351.8681      -277.55415     -351.84055      0              5585.4769      46.064509      20.047001      20.857         19260.507      6120.1048      6835.0103      3801.3157      645.22153     -101.69749     -1815.5238    
  25753000   259.39189     -353.01691     -277.00659     -352.97685      0              6233.8027      46.422434      20.047001      20.857         19410.162      6917.0678      5929.2835      5855.0569     -897.78334      870.26607     -901.27731    
  25753500   262.66043     -355.01207     -278.04396     -354.97268      0              3105.7812      46.460889      20.047001      20.857         19426.241      2499.9584      2106.8111      4710.574      -384.63942      874.55789     -157.72211    
  25754000   256.88735     -352.33049     -277.05409     -352.29072      0              5856.7079      46.030314      20.047001      20.857         19246.209      6840.9135      5576.6994      5152.5109     -233.37409     -939.9464       1061.789     
  25754500   254.60437     -353.22393     -278.61651     -353.18854      0              6327.7504      45.853142      20.047001      20.857         19172.13       6746.2125      7047.4278      5189.6111     -615.73154      310.44612      1928.6077    
  25755000   255.36064     -353.68243     -278.8534      -353.64309      0              3169.1002      46.196292      20.047001      20.857         19315.607      4567.9264      1336.0756      3603.2988      1188.651      -1509.5016     -227.77723    
  25755500   251.76411     -354.54148     -280.76635     -354.50251      0              2957.6966      46.46705       20.047001      20.857         19428.817      4467.1334      2860.6306      1545.3257      150.46452      431.07348     -308.68629    
  25756000   248.87997     -354.13286     -281.20288     -354.10249      0              4495.3334      46.441739      20.047001      20.857         19418.234      4997.1955      4563.2732      3925.5313      1744.6823      459.44691     -2332.5489    
  25756500   251.09176     -353.5524      -279.97429     -353.5129       0              2561.015       46.258292      20.047001      20.857         19341.531      229.92764      4868.1023      2585.0151     -1166.3113      955.37893      1411.7089    
  25757000   257.22296     -353.06192     -277.68717     -353.02269      0              5104.6679      46.147823      20.047001      20.857         19295.342      5319.9884      4888.5467      5105.4687     -500.26352     -1123.8669     -489.80842    
  25757500   251.6336      -355.06362     -281.32673     -355.03118      0              2217.522       46.443037      20.047001      20.857         19418.776      3369.6086      2430.2643      852.69324      190.04948     -497.77266     -1317.277     
  25758000   256.0504      -353.02781     -277.99666     -352.99641      0              3934.5798      46.436051      20.047001      20.857         19415.856      2575.0889      6374.3588      2854.2916      1199.2855      1176.6152      1599.6568    
  25758500   257.46183     -353.44008     -277.99534     -353.40192      0              5750.43        46.10657       20.047001      20.857         19278.093      6483.4127      5072.7259      5695.1513     -1384.5182      667.58872     -1150.9297    
  25759000   251.17529     -352.51573     -278.91314     -352.47599      0              4649.6835      46.33735       20.047001      20.857         19374.587      5027.5762      5427.6335      3493.8407      1064.4627     -1218.8495      119.07839    
  25759500   256.69848     -354.21344     -278.99238     -354.17414      0              5301.1752      46.544392      20.047001      20.857         19461.155      6863.9264      2996.7325      6042.8667      682.81266      1090.9036     -790.66182    
  25760000   255.7634      -355.19242     -280.24536     -355.15262      0              5173.768       46.353779      20.047001      20.857         19381.456      5541.5707      5576.7481      4402.9853      228.04229     -1037.8798     -2253.0743    
  25760500   254.09316     -352.81387     -278.35626     -352.77863      0              6048.9819      46.052105      20.047001      20.857         19255.32       4992.3         7135.0521      6019.5937     -698.29085     -1190.484      -366.8282     
  25761000   256.0023      -352.56801     -277.55095     -352.53384      0              3647.2001      46.368805      20.047001      20.857         19387.739      3169.9696      4916.6029      2855.0279      488.06777      155.06972      1563.6173    
  25761500   259.5556      -353.72449     -277.66619     -353.68735      0              4164.115       46.373995      20.047001      20.857         19389.909      3486.1246      3897.6815      5108.5389      84.675372     -1646.6367     -213.47322    
  25762000   259.08417     -354.24205     -278.32191     -354.20178      0              3605.0445      46.253534      20.047001      20.857         19339.542      4616.6855      3585.4294      2613.0186      367.12742     -696.30335      1251.9219    
  25762500   256.998       -353.69616     -278.38733     -353.65644      0              2782.5952      46.136103      20.047001      20.857         19290.441      3688.8614      1368.057       3290.8673     -408.26995     -1622.001       173.50749    
  25763000   248.87556     -354.708       -281.77931     -354.66828      0              4267.8467      46.146022      20.047001      20.857         19294.589      6132.4103      4382.336       2288.7937      416.1074       610.30292      1680.0108    
  25763500   253.91417     -352.2596      -277.85443     -352.21863      0              3992.882       46.417355      20.047001      20.857         19408.038      4049.251       4890.4548      3038.9403     -246.51728     -902.31207      998.3091     
  25764000   251.01795     -353.44497     -279.88849     -353.40564      0              3132.3721      46.532581      20.047001      20.857         19456.217      2903.9759      4451.4906      2041.6497     -121.04054      1511.1027     -864.02911    
  25764500   256.15312     -354.6222      -279.56095     -354.58756      0              4725.3232      46.058112      20.047001      20.857         19257.832      5394.4227      4979.5457      3802.0011     -15.022066     -11.387583      737.51874    
  25765000   258.37772     -355.72015     -280.00702     -355.68085      0              4870.6138      46.144985      20.047001      20.857         19294.155      4492.2648      4140.7351      5978.8415      761.90011      590.26271      521.45393    
  25765500   256.87925     -356.59442     -281.32038     -356.55235      0              665.16418      46.565821      20.047001      20.857         19470.115      1022.4124     -15.353357      988.4335      -171.28831      2479.6348     -1029.6129    
  25766000   261.93186     -354.19085     -277.43624     -354.15727      0              7147.8314      46.383562      20.047001      20.857         19393.909      6574.691       8057.6169      6811.1864      962.38776     -573.23527      207.91171    
  25766500   253.50373     -355.12441     -280.83951     -355.08274      0              4551.9143      46.050014      20.047001      20.857         19254.446      6763.7274      2898.5779      3993.4377      16.709121     -398.88922      54.784618    
  25767000   256.47523     -354.54214     -279.3865      -354.50005      0              4066.6552      46.227539      20.047001      20.857         19328.672      6479.0994      1315.7984      4405.0678     -382.75205     -879.82275     -854.95842    
  25767500   260.75602     -354.77405     -278.364       -354.75086      0              4332.9669      46.659017      20.047001      20.857         19509.082      5914.6684      3000.6026      4083.6296      263.70409     -1723.0173      680.37672    
  25768000   256.53267     -353.39296     -278.22049     -353.36741      0              5505.0895      46.421475      20.047001      20.857         19409.761      6395.7787      5607.4425      4512.0474     -500.59392      87.535544      928.85171    
  25768500   255.65091     -353.77844     -278.86435     -353.73985      0              4592.2097      46.036392      20.047001      20.857         19248.75       4662.0171      4689.0612      4425.5506      621.78797     -353.53404      286.81639    
  25769000   265.42026     -355.60351     -277.82668     -355.56959      0              3390.365       46.328067      20.047001      20.857         19370.705      4718.7587      1990.1105      3462.2259      1229.7323     -797.33289      1250.32      
  25769500   254.29674     -356.24277     -281.7255      -356.20339      0              2985.2512      46.542191      20.047001      20.857         19460.235      5161.0196      1813.4055      1981.3285      1149.7561      1684.4522      348.00411    
  25770000   253.92812     -353.96313     -279.55387     -353.92413      0              3850.7373      46.537234      20.047001      20.857         19458.162      5162.6399      1208.0764      5181.4955      601.83325     -1824.5523      1108.3141    
  25770500   255.82849     -355.9352      -280.96907     -355.89591      0              4054.4684      46.274827      20.047001      20.857         19348.444      3586.3287      4706.6515      3870.425      -267.17734     -7.7286549      1737.117     
  25771000   255.97023     -355.78224     -280.77459     -355.74409      0              2833.1402      46.218753      20.047001      20.857         19324.999      4028.4959      2666.748       1804.1767      779.64201     -344.36377      375.19968    
  25771500   260.49617     -355.38858     -279.05467     -355.34736      0              4733.9404      46.616017      20.047001      20.857         19491.103      5464.9859      4461.2534      4275.5821     -1527.7736     -422.52038      435.00898    
  25772000   254.69389     -356.41928     -281.78563     -356.37952      0              3825.7367      46.667613      20.047001      20.857         19512.676      1897.9078      5535.3467      4043.9556      17.298695      2887.2102     -1167.4312    
  25772500   264.76118     -354.62469     -277.04099     -354.58902      0              4753.9569      46.313236      20.047001      20.857         19364.504      5805.2935      4843.1318      3613.4454      1242.7063     -1277.0926      100.89396    
  25773000   258.71796     -354.39709     -278.58426     -354.35741      0              4781.3256      46.045323      20.047001      20.857         19252.484      6968.9445      3747.5951      3627.4373      542.75523     -579.68169     -439.39017    
  25773500   255.87892     -358.53541     -283.55451     -358.49466      0              5101.4487      46.3652        20.047001      20.857         19386.231      4099.6435      5994.3612      5210.3413      829.89976      548.2332      -1745.7587    
ERROR on proc 0: Cannot open restart file restart2.lmp.0: Permission denied (../write_restart.cpp:233)
Last command: run             40000000 upto
