LAMMPS (23 Jun 2022)
echo both

include		in.partitions
variable        pid world 0
include		in.temp
variable	temperature equal 255.0
variable        tempDamp equal 0.100 # this is 0.1 ps
include		in.pressure
variable        pressure equal 5066.25
variable        pressureDamp equal 1.0 #this is 1ps
include		in.seed
variable        seed world 745823

units           metal
atom_style	full
read_restart	restart.lmp.${pid}
read_restart	restart.lmp.0
Reading restart file ...
  restart file = 23 Jun 2022, LAMMPS = 23 Jun 2022
  restoring atom style full from restart
  orthogonal box = (0.64114517 0 0) to (46.809554 20.047001 20.857)
  4 by 1 by 1 MPI processor grid
Summary of lammps deepmd module ...
  >>> Info of deepmd-kit:
  installed to:       /u/sigbjobo/software/DEEPMD_FROM_SOURCE/deepmd-kit/install
  source:             v2.1.3
  source branch:       master
  source commit:      5a32c49
  source commit at:   2022-07-01 09:52:58 +0800
  surpport model ver.:1.1 
  build float prec:   double
  build with tf inc:  /u/sigbjobo/software/DEEPMD_FROM_SOURCE/tensorflow/install/include;/u/sigbjobo/software/DEEPMD_FROM_SOURCE/tensorflow/install/include
  build with tf lib:  /u/sigbjobo/software/DEEPMD_FROM_SOURCE/tensorflow/install/lib/libtensorflow_cc.so;/u/sigbjobo/software/DEEPMD_FROM_SOURCE/tensorflow/install/lib/libtensorflow_framework.so
  set tf intra_op_parallelism_threads: 0
  set tf inter_op_parallelism_threads: 0
  >>> Info of lammps module:
  use deepmd-kit at:  /u/sigbjobo/software/DEEPMD_FROM_SOURCE/deepmd-kit/install
  source:             v2.1.3
  source branch:      master
  source commit:      5a32c49
  source commit at:   2022-07-01 09:52:58 +0800
  build float prec:   double
  build with tf inc:  /u/sigbjobo/software/DEEPMD_FROM_SOURCE/tensorflow/install/include;/u/sigbjobo/software/DEEPMD_FROM_SOURCE/tensorflow/install/include
  build with tf lib:  /u/sigbjobo/software/DEEPMD_FROM_SOURCE/tensorflow/install/lib/libtensorflow_cc.so;/u/sigbjobo/software/DEEPMD_FROM_SOURCE/tensorflow/install/lib/libtensorflow_framework.so
  restoring pair style deepmd from restart
  2268 atoms
Finding 1-2 1-3 1-4 neighbors ...
  special bond factors lj:    0        0        0       
  special bond factors coul:  0        0        0       
     0 = max # of 1-2 neighbors
     0 = max # of 1-3 neighbors
     0 = max # of 1-4 neighbors
     1 = max # of special neighbors
  special bonds CPU = 0.000 seconds
  read_restart CPU = 0.004 seconds
include 	in.setup
variable	out_freq equal 500
variable	out_freq2 equal 1000
variable	out_freq3 equal 5000

timestep        0.0005

neigh_modify    delay 7 every 1

include         in.deepmd
# This is deepMD model

# create groups ###
#group ox type 2
#group hy type 1

mass 2 15.999
mass 1 1.008

pair_style      deepmd ../graph.pb
pair_coeff      * *

bond_style      none
angle_style     none
dihedral_style  none
improper_style  none
neigh_modify exclude none


neighbor        2.0 bin
neigh_modify    every 10 delay 0 check no

thermo          ${out_freq}
thermo          500
thermo_style 	custom step temp pe etotal epair emol press lx ly lz vol pxx pyy pzz pxy pxz pyz
#thermo_modify	flush yes
restart 	${out_freq} restart.lmp.${pid} restart2.lmp.${pid}
restart 	500 restart.lmp.${pid} restart2.lmp.${pid}
restart 	500 restart.lmp.0 restart2.lmp.${pid}
restart 	500 restart.lmp.0 restart2.lmp.0

include		in.dump
dump            myDump all atom ${out_freq3} dump.water.${pid}
dump            myDump all atom 5000 dump.water.${pid}
dump            myDump all atom 5000 dump.water.0
dump            myDump2 all dcd ${out_freq2} dump.dcd.${pid}
dump            myDump2 all dcd 1000 dump.dcd.${pid}
dump            myDump2 all dcd 1000 dump.dcd.0
dump_modify     myDump append yes
dump_modify     myDump2 append yes


timer           timeout 23:50:00 every 1000
New timer settings: style=normal  mode=nosync  timeout=23:50:00

fix             1 all plumed plumedfile plumed.dat outfile plumed.out
fix             3 all nph x ${pressure} ${pressure} ${pressureDamp}
fix             3 all nph x 5066.25 ${pressure} ${pressureDamp}
fix             3 all nph x 5066.25 5066.25 ${pressureDamp}
fix             3 all nph x 5066.25 5066.25 1
Resetting global fix info from restart file:
  fix style: nph, fix ID: 3
fix             4 all temp/csvr ${temperature} ${temperature} ${tempDamp} ${seed}
fix             4 all temp/csvr 255 ${temperature} ${tempDamp} ${seed}
fix             4 all temp/csvr 255 255 ${tempDamp} ${seed}
fix             4 all temp/csvr 255 255 0.1 ${seed}
fix             4 all temp/csvr 255 255 0.1 745823
Resetting global fix info from restart file:
  fix style: temp/csvr, fix ID: 4

run             40000000 upto

CITE-CITE-CITE-CITE-CITE-CITE-CITE-CITE-CITE-CITE-CITE-CITE-CITE

Your simulation uses code contributions which should be cited:

- USER-DEEPMD package:

@article{Wang_ComputPhysCommun_2018_v228_p178,
  author = {Wang, Han and Zhang, Linfeng and Han, Jiequn and E, Weinan},
  doi = {10.1016/j.cpc.2018.03.016},
  url = {https://doi.org/10.1016/j.cpc.2018.03.016},
  year = 2018,
  month = {jul},
  publisher = {Elsevier {BV}},
  volume = 228,
  journal = {Comput. Phys. Commun.},
  title = {{DeePMD-kit: A deep learning package for many-body potential energy representation and molecular dynamics}},
  pages = {178--184}
}

CITE-CITE-CITE-CITE-CITE-CITE-CITE-CITE-CITE-CITE-CITE-CITE-CITE

Generated 0 of 1 mixed pair_coeff terms from geometric mixing rule
All restart file global fix info was re-assigned
Neighbor list info ...
  update every 10 steps, delay 0 steps, check no
  max neighbors/atom: 2000, page size: 100000
  master list distance cutoff = 8
  ghost atom cutoff = 8
  binsize = 4, bins = 12 6 6
  1 neighbor lists, perpetual/occasional/extra = 1 0 0
  (1) pair deepmd, perpetual
      attributes: full, newton on
      pair build: full/bin
      stencil: full/bin/3d
      bin: standard
Per MPI rank memory allocation (min/avg/max) = 6.185 | 6.186 | 6.187 Mbytes
   Step          Temp          PotEng         TotEng         E_pair         E_mol          Press            Lx             Ly             Lz           Volume          Pxx            Pyy            Pzz            Pxy            Pxz            Pyz      
  30109000   248.85676     -354.4929      -281.56972     -354.4929       0              5094.4983      46.168409      20.047001      20.857         19303.949      6212.9435      4119.1971      4951.3544      141.09887      1648.8901      85.371383    
  30109500   252.82983     -354.20752     -280.1201      -354.21164      0              6264.7165      45.814841      20.047001      20.857         19156.115      6683.9751      5415.6826      6694.4918     -984.95321     -1134.8654     -1083.0579    
  30110000   257.4558      -355.86928     -280.42629     -355.84694      0              4484.8546      46.058667      20.047001      20.857         19258.064      4761.7174      6319.0779      2373.7684     -1255.5961     -148.79526      197.07895    
  30110500   250.78477     -353.83372     -280.34556     -353.83501      0              2404.4865      46.594584      20.047001      20.857         19482.141      606.99095      3017.0129      3589.4557      1.5055057     -42.324297      574.31115    
  30111000   251.31516     -353.02375     -279.38017     -353.03121      0              4098.0096      46.238643      20.047001      20.857         19333.315      3613.3906      5615.0997      3065.5383      647.91104      1550.2395      1648.9673    
  30111500   255.27726     -353.20405     -278.39945     -353.20297      0              3996.4499      46.09443       20.047001      20.857         19273.017      4324.387       3329.0939      4335.8689      351.73682      107.29228      296.65264    
  30112000   257.46116     -355.7045      -280.25995     -355.69259      0              5124.8437      46.138668      20.047001      20.857         19291.514      5911.1336      5978.1863      3485.211      -714.66865      187.00227      850.04434    
  30112500   258.07584     -353.79565     -278.17098     -353.7965       0              2983.7679      46.180138      20.047001      20.857         19308.853      6487.8512      2314.2042      149.2485      -412.31392      1505.8811      67.126859    
  30113000   251.18065     -354.97705     -281.3729      -354.974        0              3106.6097      46.202287      20.047001      20.857         19318.114      1618.5126      5953.5668      1747.7495      158.25298      937.59441      1395.621     
  30113500   249.53077     -354.78602     -281.66534     -354.77835      0              4817.0758      46.242866      20.047001      20.857         19335.081      6443.2938      4808.2997      3199.6338     -647.67636      214.83111      762.62352    
  30114000   258.28918     -356.54968     -280.86249     -356.5512       0              3831.8266      46.338584      20.047001      20.857         19375.103      4183.4407      3870.9079      3441.131       1149.1854     -1527.4757      1530.8583    
  30114500   256.1884      -356.05775     -280.98617     -356.0571       0              2263.7196      46.387613      20.047001      20.857         19395.603      2860.3437      3737.5513      193.26388      389.79549     -508.7948      -1216.7676    
  30115000   249.4355      -355.99524     -282.90247     -355.99569      0              3293.621       46.195034      20.047001      20.857         19315.081      3425.2379      2969.2117      3486.4133     -712.40705     -271.0566       1951.9768    
  30115500   247.75139     -355.46602     -282.86675     -355.46147      0              3149.5106      46.146742      20.047001      20.857         19294.89       3860.1477      4242.3444      1346.0397     -118.37938     -176.6075       1881.2177    
  30116000   252.16797     -354.33324     -280.43977     -354.32836      0              1750.6833      46.440788      20.047001      20.857         19417.836      1596.9584      3316.711       338.38049      621.63168     -31.760866     -596.13994    
  30116500   253.18366     -354.6706      -280.47949     -354.66252      0              3318.605       46.369811      20.047001      20.857         19388.159      3723.6129      3916.6722      2315.53        761.19809      709.8429      -839.65233    
  30117000   252.7368      -355.79997     -281.73981     -355.80144      0              6800.1198      46.204145      20.047001      20.857         19318.891      6112.6048      9255.4233      5032.3313     -92.473141     -219.70708      394.66797    
  30117500   253.59917     -358.13805     -283.82519     -358.14056      0              5768.6347      46.301483      20.047001      20.857         19359.59       5606.2976      4564.6126      7134.994      -586.47525     -1210.3307      42.94194     
  30118000   251.15642     -352.36719     -278.77013     -352.37739      0              3279.3782      46.497687      20.047001      20.857         19441.627      4129.9697      2430.9799      3277.185      -1105.0667      147.79621     -593.28399    
  30118500   263.76455     -353.04955     -275.7579      -353.05093      0              3743.1054      46.286168      20.047001      20.857         19353.186      3407.4525      4499.9321      3321.9316     -400.50085     -1054.7016      741.96142    
  30119000   260.68496     -353.80424     -277.41501     -353.80317      0              4383.0554      46.005509      20.047001      20.857         19235.837      5371.0126      3254.9059      4523.2476      1182.6974      753.05306     -1040.6756    
  30119500   256.58442     -355.69316     -280.50552     -355.67253      0              2134.7807      46.201454      20.047001      20.857         19317.766      6401.3482      115.11559     -112.12161      673.85429      288.72458     -1171.269     
  30120000   254.90272     -354.43307     -279.73822     -354.41775      0              3616.3846      46.366792      20.047001      20.857         19386.897      2747.5207      3342.7699      4758.8632      1027.885      -975.54201      757.57764    
  30120500   251.21105     -355.75687     -282.1438      -355.75018      0              5134.3717      46.014819      20.047001      20.857         19239.73       5450.6453      4452.8108      5499.6589     -798.62718     -159.34926     -981.64056    
  30121000   252.78587     -355.25372     -281.17919     -355.24501      0              5852.5766      45.936026      20.047001      20.857         19206.785      8278.7471      4291.9791      4987.0038      901.24738      77.525333      282.70639    
  30121500   251.91432     -352.79535     -278.97621     -352.79675      0              3952.213       46.258032      20.047001      20.857         19341.422      4721.3337      4004.6274      3130.6779     -764.26154     -20.990277      1577.8404    
  30122000   263.62607     -355.09249     -277.84142     -355.09628      0              4212.3906      46.293663      20.047001      20.857         19356.32       4902.9911      4182.7847      3551.3959     -15.890068     -620.57066      1701.4883    
  30122500   259.31949     -354.58675     -278.59765     -354.58575      0              5495.7026      46.208189      20.047001      20.857         19320.582      8464.8406      4095.4213      3926.846       770.17414     -1091.7361     -616.05676    
  30123000   255.55051     -354.78742     -279.90275     -354.77964      0              2520.7801      46.281684      20.047001      20.857         19351.312      3866.0666      2445.6362      1250.6376     -905.64735     -1514.9183     -1748.8096    
  30123500   254.30195     -356.30413     -281.78533     -356.31213      0              4404.4156      46.083494      20.047001      20.857         19268.444      3723.6614      5455.7775      4033.8078     -1769.9327     -521.43433      381.91242    
  30124000   259.53156     -354.599       -278.54775     -354.58333      0              6055.5394      45.835417      20.047001      20.857         19164.718      5434.195       8003.3091      4729.1139      993.43012     -1831.3003     -2272.4367    
  30124500   250.13477     -353.02914     -279.73146     -353.02093      0              4080.8636      45.994252      20.047001      20.857         19231.13       4697.549       2785.5384      4759.5034     -521.94053      1360.2364      1645.8471    
  30125000   251.76731     -353.79357     -280.0175      -353.78838      0              3340.5577      46.263601      20.047001      20.857         19343.751      1703.051       5316.1423      3002.4798     -2005.4111      405.35174      799.6621     
  30125500   251.85505     -355.93404     -282.13227     -355.92693      0              4501.1469      46.368903      20.047001      20.857         19387.78       4002.8553      6075.6219      3424.9636      445.09165     -347.27774     -34.243838    
  30126000   254.61312     -355.06725     -280.45727     -355.06603      0              6504.649       45.971267      20.047001      20.857         19221.52       7916.1741      5957.1273      5640.6457     -266.42096      35.799336      499.20375    
  30126500   253.86673     -354.61125     -280.21999     -354.60757      0              5380.5469      45.799578      20.047001      20.857         19149.733      5925.2746      5184.8112      5031.5549     -713.19859      804.13034     -603.62371    
  30127000   253.00593     -353.97513     -279.83611     -353.98399      0              3289.0437      46.236336      20.047001      20.857         19332.351      4139.9958      2252.1463      3474.989      -1909.002      -962.00842     -440.55123    
  30127500   253.1499      -351.31545     -277.13423     -351.3073       0              5337.1569      46.279762      20.047001      20.857         19350.508      5991.6781      5784.3746      4235.418      -270.2446      -543.02445      797.11329    
  30128000   250.51877     -356.09745     -282.68724     -356.09043      0              5042.8228      46.161074      20.047001      20.857         19300.882      6427.8106      3581.6309      5119.0269      366.90482      2174.0593     -443.35107    
  30128500   252.60586     -356.51387     -282.49208     -356.51104      0              4155.5346      46.148687      20.047001      20.857         19295.703      5760.0779      3459.1297      3247.3964     -263.73559      1465.4822      1693.2936    
  30129000   253.28492     -355.60044     -281.37966     -355.59729      0              2738.115       46.463162      20.047001      20.857         19427.191      4501.3923      397.30303      3315.6496     -675.93697     -653.18588     -1457.5108    
  30129500   249.66281     -351.30312     -278.14374     -351.30537      0              3373.9037      46.319421      20.047001      20.857         19367.09       3504.9905      3949.6794      2667.0412     -2250.0694      2229.9466      427.49537    
  30130000   261.16544     -353.23349     -276.70347     -353.22443      0              6521.96        45.912898      20.047001      20.857         19197.115      6067.9794      8086.2442      5411.6564     -19.470098      650.45794      1468.2584    
  30130500   268.186       -354.51186     -275.92458     -354.51636      0              4847.4977      45.840307      20.047001      20.857         19166.763      4994.7392      5435.1794      4112.5746      1380.8133      256.91971     -31.364068    
  30131000   253.44973     -354.10176     -279.83269     -354.10307      0              4988.8028      45.988209      20.047001      20.857         19228.604      5725.2349      5485.5779      3755.5955     -998.98238      1051.4333     -149.59235    
  30131500   255.16197     -355.12034     -280.34953     -355.12392      0              6073.4959      46.098365      20.047001      20.857         19274.662      5928.7678      5428.1024      6863.6174      271.69406     -763.45923      533.78713    
  30132000   251.9432      -353.22255     -279.39494     -353.22599      0              4711.4324      46.010412      20.047001      20.857         19237.887      3647.6941      4953.1918      5533.4113     -1021.9941     -1345.7063      322.72387    
  30132500   266.12567     -355.74026     -277.75672     -355.73972      0              4518.2968      45.833893      20.047001      20.857         19164.081      5515.603       2661.083       5378.2042      249.69965      673.01516     -447.84537    
  30133000   259.32626     -355.55339     -279.5623      -355.54627      0              4156.3711      46.250633      20.047001      20.857         19338.329      4549.506       4294.7133      3624.894      -448.67581     -1284.1492     -1304.4194    
  30133500   254.57099     -355.36161     -280.76397     -355.35762      0              2633.573       46.52035       20.047001      20.857         19451.103      3538.8787      1501.7754      2860.065      -1598.1143     -336.59985     -692.60896    
  30134000   252.89301     -353.42175     -279.31582     -353.42832      0              3163.8298      46.133199      20.047001      20.857         19289.227      4413.4932      2181.3993      2896.5969     -120.68956     -410.57679     -2168.8635    
  30134500   257.58567     -355.31288     -279.83184     -355.30079      0              4997.1684      46.059157      20.047001      20.857         19258.269      4262.3062      5930.1604      4799.0384     -943.29596      113.50587      542.06795    
  30135000   250.35426     -355.43664     -282.07464     -355.43891      0              5146.3934      46.205996      20.047001      20.857         19319.665      4788.1072      4437.0727      6214.0002     -892.6482      -97.881949      1425.327     
  30135500   254.24254     -352.82789     -278.3265      -352.82937      0              2470.2289      46.230925      20.047001      20.857         19330.088      2797.3385      3513.5468      1099.8015      345.72595      929.82811     -746.35736    
  30136000   263.05777     -356.15048     -279.06594     -356.12845      0              6817.8664      45.955848      20.047001      20.857         19215.073      7726.1602      3819.5601      8907.8789     -1471.7419      980.02028      2443.9658    
  30136500   261.28393     -356.34881     -279.78406     -356.34301      0              2969.5839      46.032717      20.047001      20.857         19247.214      4349.1007      2416.6524      2142.9985     -1509.4196      165.10467      886.21521    
  30137000   247.7733      -356.59645     -283.99076     -356.58796      0              5019.3518      46.204185      20.047001      20.857         19318.908      3229.6903      6321.098       5507.2671      179.68944      1259.9032     -438.69478    
  30137500   254.54337     -355.02874     -280.43919     -355.03108      0              3182.5462      46.087907      20.047001      20.857         19270.289      3982.3534      3931.6854      1633.5999     -125.71743      595.76494      1471.8937    
  30138000   264.39345     -352.30622     -274.83028     -352.29704      0              5072.039       46.015556      20.047001      20.857         19240.038      5484.7563      4368.0686      5363.2921     -13.918641      1685.5749      90.338505    
  30138500   258.73657     -356.36937     -280.55108     -356.35402      0              5848.3927      46.277591      20.047001      20.857         19349.6        5010.9666      5541.0055      6993.206       1286.464       1111.8822      588.10455    
  30139000   246.19872     -354.24122     -282.09693     -354.23619      0              5331.57        46.395197      20.047001      20.857         19398.774      4766.9422      4249.2455      6978.5224     -894.8438       362.35443      402.29896    
  30139500   258.66172     -356.95815     -281.16179     -356.9505       0              5779.7898      46.216282      20.047001      20.857         19323.966      6518.5053      5899.4473      4921.4167      998.34682     -862.4203       1042.7841    
  30140000   262.71865     -355.60808     -278.62291     -355.60886      0              4617.5846      46.103288      20.047001      20.857         19276.72       6925.2656      3089.5658      3837.9224     -498.99608     -226.45608     -338.43989    
  30140500   253.1434      -356.1734      -281.99409     -356.16203      0              6075.2011      46.205785      20.047001      20.857         19319.577      8106.7285      4436.7273      5682.1476      468.22313     -1286.7137      430.09079    
  30141000   261.64166     -354.01164     -277.34207     -354.00237      0              3689.2095      46.352314      20.047001      20.857         19380.843      3699.3611      3584.3217      3783.9459     -415.48842      119.67723     -574.00246    
  30141500   257.04822     -357.08541     -281.76187     -357.06863      0              6170.5737      46.082273      20.047001      20.857         19267.934      7530.8095      5531.4583      5449.4533      290.15125      179.4443       1261.1406    
  30142000   255.39711     -355.34621     -280.5065      -355.35093      0              4040.9827      46.165489      20.047001      20.857         19302.728      5886.1366      4356.7817      1880.0299     -61.778782     -1782.9112      1076.8725    
  30142500   260.29976     -355.69091     -279.41456     -355.70215      0              2924.8895      46.209581      20.047001      20.857         19321.164      2901.7567      2419.9872      3452.9248     -1096.3557      1686.9132      3196.5751    
  30143000   250.9517      -357.57973     -284.04266     -357.57232      0              6389.0013      46.10277       20.047001      20.857         19276.504      6394.8224      7648.2861      5123.8954     -100.98065     -481.27659     -1780.0282    
  30143500   247.01702     -357.42719     -285.04311     -357.41491      0              4596.0472      45.863628      20.047001      20.857         19176.514      5927.8262      3725.9862      4134.3292      1508.6011      958.55327      994.52432    
  30144000   247.99439     -355.42184     -282.75136     -355.40816      0              3903.6528      45.97136       20.047001      20.857         19221.559      3921.4746      3098.8923      4690.5914      1531.6317      122.66746     -1311.1707    
  30144500   253.10853     -357.94553     -283.77645     -357.9291       0              3643.4091      45.944034      20.047001      20.857         19210.133      3130.7694      4639.6133      3159.8446     -853.96958      497.77768     -3.6876424    
  30145000   251.36769     -355.73793     -282.07897     -355.71549      0              5938.9446      45.733726      20.047001      20.857         19122.199      7191.3858      6003.9626      4621.4855     -203.59903      2768.3404     -650.82095    
  30145500   253.16251     -355.10761     -280.9227      -355.09782      0              4949.7217      45.857542      20.047001      20.857         19173.969      4651.3436      5246.8228      4950.9987      152.12651      1805.7266      18.700966    
  30146000   250.221       -354.49701     -281.17406     -354.49144      0              5399.9094      45.981949      20.047001      20.857         19225.986      7466.0274      4861.9309      3871.7697     -1337.1869      1070.9985      518.674      
  30146500   244.81041     -354.84        -283.10253     -354.83372      0              6450.0656      46.051548      20.047001      20.857         19255.087      7307.2235      5904.0223      6138.9509      995.47346     -531.11279      520.80042    
  30147000   245.82034     -356.01545     -283.98204     -355.99344      0              3138.6848      46.058668      20.047001      20.857         19258.064      4977.0562      1919.6536      2519.3447      1098.228       1121.6344      844.99506    
  30147500   256.75973     -354.41878     -279.17977     -354.3896       0              4084.7797      46.050062      20.047001      20.857         19254.466      5078.3296      2649.2258      4526.7837     -356.88458      606.36123      155.39479    
  30148000   255.13726     -355.94399     -281.18042     -355.91574      0              4722.6886      46.12153       20.047001      20.857         19284.348      4805.5921      3693.7234      5668.7503     -779.03556      308.7753      -1435.6097    
  30148500   258.52139     -356.08637     -280.33114     -356.05755      0              4757.2588      46.13414       20.047001      20.857         19289.62       5695.7569      4763.5685      3812.451      -881.30181      425.38525     -653.83293    
  30149000   258.6885      -357.35012     -281.54591     -357.32452      0              3940.5346      46.323993      20.047001      20.857         19369.002      6626.0241      581.9698       4613.6101     -1646.7722     -784.65879     -465.39507    
  30149500   254.29834     -358.13335     -283.6156      -358.1154       0              2529.575       46.235943      20.047001      20.857         19332.187      1600.1985      3919.2013      2069.3251     -1053.4121      647.03204      1600.5424    
  30150000   255.81309     -359.11411     -284.1525      -359.10715      0              5653.377       46.014466      20.047001      20.857         19239.582      6851.3945      3901.3132      6207.4233     -1087.3273      194.75403      1276.7094    
  30150500   254.13474     -354.65171     -280.18191     -354.64028      0              4807.9186      45.989898      20.047001      20.857         19229.31       4388.7999      3590.6857      6444.2702     -2.8074462     -1271.2317      1582.5352    
  30151000   255.60233     -352.65051     -277.75066     -352.65078      0              3362.1459      46.156419      20.047001      20.857         19298.936      3161.3716      4349.4091      2575.6571      592.48612     -944.95289     -140.54266    
  30151500   257.57677     -356.02221     -280.54378     -356.01997      0              5426.3007      46.322944      20.047001      20.857         19368.563      6519.2846      3583.7369      6175.8805      339.1419       1232.9894      41.339451    
  30152000   244.46027     -354.55919     -282.92432     -354.53665      0              2483.7627      45.995984      20.047001      20.857         19231.855      2468.4609      3997.9144      984.9128      -130.62788      55.611831      1143.4167    
  30152500   264.36211     -355.11235     -277.6456      -355.10721      0              5818.3711      46.016955      20.047001      20.857         19240.623      6777.6747      4805.656       5871.7825     -999.6964      -71.846155     -487.08244    
  30153000   255.31899     -350.52721     -275.71038     -350.52642      0              4382.1597      46.425175      20.047001      20.857         19411.308      5189.5604      3759.6353      4197.2833      914.85845      1122.8978     -82.04085     
  30153500   265.27148     -353.61597     -275.88274     -353.59812      0              2377.7589      46.362608      20.047001      20.857         19385.147      2651.3402      2446.5788      2035.3577     -191.34248     -663.49336     -818.31096    
  30154000   256.80063     -354.81631     -279.56532     -354.81174      0              3815.5463      46.193913      20.047001      20.857         19314.613      5632.8655      4207.5187      1606.2547      272.357        1860.4926      1358.0992    
  30154500   256.07022     -356.22252     -281.18556     -356.21963      0              3079.268       46.305053      20.047001      20.857         19361.083      1460.6086      4442.5997      3334.5956     -1152.1885      102.16447     -190.52387    
  30155000   248.8309      -355.70842     -282.79282     -355.70583      0              3698.2799      46.42667       20.047001      20.857         19411.933      6379.5964      2497.9791      2217.2641     -439.40064      212.7627       372.30291    
  30155500   252.5909      -354.54937     -280.53197     -354.52279      0              4035.4877      46.170052      20.047001      20.857         19304.636      4399.2225      2138.2828      5568.9579     -708.21082      320.60765     -1025.3538    
  30156000   255.90314     -355.88856     -280.90056     -355.87431      0              3741.6744      46.044928      20.047001      20.857         19252.319      4438.9929      3563.0178      3223.0127     -193.09383     -127.58083     -1687.6466    
  30156500   250.56722     -355.25419     -281.82979     -355.24249      0              1465.4328      46.248168      20.047001      20.857         19337.298      3232.0738      767.8247       396.39987     -1240.4501     -103.36627     -342.67655    
  30157000   257.66155     -355.97549     -280.47222     -355.94845      0              3141.4165      46.410478      20.047001      20.857         19405.163      4244.62       -238.43518      5418.0646     -271.23747      51.531708      761.70247    
  30157500   260.09299     -355.65403     -279.43827     -355.62485      0              4979.0089      46.291194      20.047001      20.857         19355.288      3852.7361      6356.4554      4727.8353     -504.16129     -897.47825      1421.1368    
  30158000   255.47376     -355.16744     -280.30526     -355.14694      0              6413.3944      46.236672      20.047001      20.857         19332.491      6287.2395      7926.9956      5025.948       515.69892     -345.62586     -693.01122    
  30158500   248.03377     -356.93417     -284.25216     -356.91294      0              5136.2101      46.237598      20.047001      20.857         19332.878      4849.1463      4132.4667      6427.0175     -524.19279      1439.3652     -464.64262    
  30159000   247.62205     -357.18074     -284.61937     -357.14245      0              4279.0037      46.349632      20.047001      20.857         19379.722      5123.0306      1961.8684      5752.1122      420.66389     -248.47219     -10.103305    
  30159500   256.19304     -357.80544     -282.73249     -357.77213      0              4088.4053      46.307472      20.047001      20.857         19362.094      3518.5752      5449.5343      3297.1063     -470.67878      905.82446     -1570.2295    
  30160000   255.01083     -357.32584     -282.59931     -357.29892      0              4870.3485      46.216743      20.047001      20.857         19324.158      5759.7039      3780.4322      5070.9093      202.27158      571.65103      512.63014    
  30160500   249.78509     -356.24058     -283.04537     -356.21042      0              4515.2904      46.095589      20.047001      20.857         19273.501      5487.6003      4398.4424      3659.8286     -407.94984      2491.7017      256.29963    
  30161000   256.22346     -357.68318     -282.60131     -357.64336      0              3621.8654      45.976449      20.047001      20.857         19223.687      5039.694       3209.6104      2616.2917     -913.55522      52.549261     -329.4597     
  30161500   253.04841     -354.88084     -280.72937     -354.84455      0              5298.7076      46.224084      20.047001      20.857         19327.228      5250.1176      6108.706       4537.2992      997.25174     -240.09725      833.37698    
  30162000   249.77311     -356.43515     -283.24345     -356.40839      0              4475.7412      46.38348       20.047001      20.857         19393.875      2198.9864      7111.7561      4116.4811      704.3619      -12.029825     -719.87487    
  30162500   258.58676     -356.01251     -280.23812     -355.98925      0              5624.423       46.34299       20.047001      20.857         19376.945      7486.1503      4957.9774      4429.1411     -1031.2367      1156.7872     -72.247764    
  30163000   253.96185     -355.66654     -281.2474      -355.63771      0              4962.8389      46.281723      20.047001      20.857         19351.328      4893.5521      6534.0759      3460.8886     -55.199556     -170.05225      1397.4724    
  30163500   256.4713      -353.67714     -278.52264     -353.64306      0              4402.2596      45.90173       20.047001      20.857         19192.445      4975.9164      2550.556       5680.3062     -530.15841     -107.98538      904.20267    
  30164000   261.8421      -356.06235     -279.33404     -356.0295       0              3883.6323      46.086837      20.047001      20.857         19269.842      5314.0516      4386.707       1950.1383     -782.84033     -1673.7052      1682.0488    
  30164500   258.35042     -358.09419     -282.38905     -358.06311      0              4982.9882      46.17651       20.047001      20.857         19307.336      4861.1166      6111.5749      3976.2731      1030.5716     -585.60084      243.58904    
  30165000   250.9878      -357.11789     -283.57024     -357.08568      0              3842.7725      45.937927      20.047001      20.857         19207.58       5865.5477      2875.8218      2786.9481      45.952597      885.04342     -134.18434    
  30165500   249.43219     -355.93229     -282.84049     -355.90353      0              3979.6624      46.008903      20.047001      20.857         19237.256      4395.4516      3761.1419      3782.3938      84.196027     -156.52996     -1431.7038    
  30166000   250.66633     -359.18801     -285.73457     -359.15372      0              4277.8449      46.049038      20.047001      20.857         19254.038      5240.9105      4887.6685      2704.9556     -280.49611     -333.36044      5.5131918    
  30166500   252.7978      -356.84182     -282.76379     -356.81642      0              3305.749       46.155907      20.047001      20.857         19298.722      1982.5773      3773.2999      4161.3697      316.18395     -943.38972      620.31082    
  30167000   259.06224     -355.0609      -279.14718     -355.02111      0              3989.7461      45.981668      20.047001      20.857         19225.869      4614.6453      4055.2839      3299.309       297.00308     -1529.375       436.18358    
  30167500   258.30737     -353.96366     -278.27114     -353.944        0              5728.619       46.079798      20.047001      20.857         19266.899      5414.7859      6777.5139      4993.5572      872.92361     -575.00763      102.57367    
  30168000   255.15509     -354.83238     -280.06358     -354.80032      0              3863.3651      46.178838      20.047001      20.857         19308.31       4701.3434      2405.9159      4482.8361     -1095.4443     -865.65656      384.24352    
  30168500   245.79378     -356.79561     -284.76998     -356.7558       0              6867.2419      46.031048      20.047001      20.857         19246.516      7935.7263      6117.5415      6548.4578      1326.7878      1002.2424      185.24189    
  30169000   251.00858     -357.57129     -284.01756     -357.54204      0              5463.5367      46.0093        20.047001      20.857         19237.422      5726.7524      6020.509       4643.3488     -949.99645     -1125.6727      224.2207     
  30169500   246.86486     -356.211       -283.87152     -356.18001      0              4846.0353      46.287937      20.047001      20.857         19353.926      5679.0806      3204.4295      5654.5959      442.59396     -788.73676     -972.34303    
  30170000   258.44369     -354.09313     -278.36066     -354.07277      0              3902.9927      46.148847      20.047001      20.857         19295.77       5543.5699      5305.2743      860.13392      1887.5183     -1128.3646      680.75293    
  30170500   256.60565     -356.83971     -281.64585     -356.80987      0              4114.5176      46.174549      20.047001      20.857         19306.516      3830.1443      3220.2563      5293.1523      235.98212      547.88383     -608.49371    
  30171000   249.57716     -356.51846     -283.38418     -356.4858       0              3254.8558      46.367301      20.047001      20.857         19387.11       2919.7974      3325.4333      3519.3366      1343.4271     -685.7381       1466.8624    
  30171500   261.09638     -355.55031     -279.04052     -355.51962      0              5260.3544      46.115841      20.047001      20.857         19281.969      5912.1343      5799.3744      4069.5544      283.23249      498.36275      689.95919    
  30172000   262.46477     -354.26678     -277.35601     -354.24219      0              4799.9722      46.037018      20.047001      20.857         19249.012      6177.3202      4709.9035      3512.693       0.32258799    -369.62535     -1794.9397    
  30172500   258.44326     -355.49664     -279.7643      -355.47373      0              5808.86        46.236398      20.047001      20.857         19332.376      4930.6394      6998.2098      5497.7309      252.72622     -432.73006      1013.4559    
  30173000   253.75187     -355.83372     -281.47611     -355.81439      0              4719.2786      46.160904      20.047001      20.857         19300.811      4528.4812      4482.4938      5146.861      -58.755396     -973.88418     -132.71172    
  30173500   256.07444     -354.63238     -279.59418     -354.60146      0              6124.6911      46.047323      20.047001      20.857         19253.321      4963.9835      7817.1897      5592.9001     -1287.3151     -381.94817     -1203.6122    
  30174000   256.41202     -356.07342     -280.9363      -356.04638      0              5335.6986      46.109443      20.047001      20.857         19279.294      6325.4791      3685.2296      5996.3871      448.44865      1121.9199     -641.40117    
  30174500   256.22787     -356.75474     -281.67158     -356.71441      0              6561.4199      46.091102      20.047001      20.857         19271.625      6647.4221      6847.7919      6189.0458     -236.2819       476.55145      323.35709    
  30175000   256.65115     -356.38043     -281.17324     -356.36124      0              4196.8775      45.88148       20.047001      20.857         19183.978      5937.4929      3647.204       3005.9356     -504.10326      557.88065      1490.533     
  30175500   252.25122     -352.5873      -278.66943     -352.55619      0              7244.3345      45.856728      20.047001      20.857         19173.629      6553.5048      7241.818       7937.6807     -421.36587      130.84865     -26.661182    
  30176000   253.06203     -352.44595     -278.29048     -352.41713      0              2423.0113      46.118734      20.047001      20.857         19283.179      5373.9868      1199.7395      695.30746     -239.23696      996.77763      679.50697    
  30176500   266.26295     -356.03108     -278.00731     -356.00057      0              4356.8387      46.000649      20.047001      20.857         19233.805      2769.4766      5321.2327      4979.8066      826.24973      998.18192     -320.94331    
  30177000   261.36921     -355.44742     -278.85768     -355.40761      0              6538.703       46.097572      20.047001      20.857         19274.331      8999.2072      5484.3674      5132.5344     -844.13105      904.2348      -806.82935    
  30177500   250.92341     -353.73125     -280.20247     -353.71082      0              2130.0198      46.309233      20.047001      20.857         19362.83       1198.6095      3239.2578      1952.1922      262.70688      1005.7019      1804.4948    
  30178000   256.63461     -354.96387     -279.76152     -354.94581      0              4036.7086      46.046817      20.047001      20.857         19253.109      4272.0028      3364.8476      4473.2754      864.91681     -1177.4889     -1921.1255    
  30178500   244.5518      -355.79061     -284.12893     -355.7613       0              5917.7434      45.951958      20.047001      20.857         19213.447      8396.7416      4458.6308      4897.8579      746.28733      405.55543      1439.6966    
  30179000   248.21332     -354.57605     -281.84142     -354.54774      0              3917.7627      46.062414      20.047001      20.857         19259.631      3027.3138      5209.6254      3516.3488     -787.10061      1120.3541     -1247.7071    
  30179500   247.64547     -354.15708     -281.58884     -354.12574      0              3820.9337      45.894019      20.047001      20.857         19189.221      5389.9974      1854.3966      4218.4071     -853.50547     -1679.1817      1853.4362    
  30180000   252.4018      -354.9906      -281.0286      -354.95195      0              5254.1915      45.861561      20.047001      20.857         19175.65       4783.5588      6323.9932      4655.0224     -182.91836      253.46387      498.57268    
  30180500   253.38983     -356.28146     -282.02994     -356.23687      0              3744.4128      46.117964      20.047001      20.857         19282.857      4271.5968      2866.514       4095.1277     -1580.0317     -922.99045     -203.67822    
  30181000   252.41732     -353.88745     -279.92091     -353.8538       0              5207.1222      46.404261      20.047001      20.857         19402.564      4924.422       4489.0085      6207.9362      579.59374     -453.41103      606.59604    
  30181500   259.74982     -353.26266     -277.14746     -353.2367       0              4177.5971      45.96234       20.047001      20.857         19217.787      6102.7878      3312.8331      3117.1705      713.47153     -59.503513      1280.2997    
  30182000   254.34956     -356.39688     -281.86413     -356.36119      0              2531.5905      45.866878      20.047001      20.857         19177.873      3673.6032      1169.2532      2751.915       122.35739     -411.13482      290.79453    
  30182500   255.87812     -354.64659     -279.66592     -354.61567      0              4843.0911      46.156562      20.047001      20.857         19298.996      3595.896       5088.3485      5845.029      -1205.4361     -142.60316      229.36687    
  30183000   252.40154     -351.17537     -277.21345     -351.1443       0              4252.4127      46.078764      20.047001      20.857         19266.467      3059.3679      4315.9651      5381.9052      1625.9542      361.48125     -1061.9739    
  30183500   255.30503     -355.31979     -280.50705     -355.29301      0              3907.8142      45.891056      20.047001      20.857         19187.982      4427.299       1903.2461      5392.8974     -296.89682     -1052.4584      1439.2993    
  30184000   262.6204      -354.96031     -278.00394     -354.92479      0              6820.1077      45.920956      20.047001      20.857         19200.484      9316.9977      4671.7637      6471.5619     -1.521723       210.11459      1041.8969    
  30184500   251.46359     -354.15446     -280.46739     -354.13843      0              3593.8642      46.0812        20.047001      20.857         19267.485      5734.2871      855.20585      4192.0996     -1107.0898      145.13809     -246.20489    
  30185000   254.91115     -354.09769     -279.40037     -354.06662      0              4813.8624      46.203516      20.047001      20.857         19318.628      4964.1049      5514.3397      3963.1427     -325.30994      726.19931      1379.2033    
  30185500   259.19761     -355.98223     -280.02884     -355.96643      0              4558.0084      46.117294      20.047001      20.857         19282.577      4616.2864      5176.003       3881.7359      918.34412      801.08981     -129.26018    
  30186000   248.81306     -357.77676     -284.86638     -357.74931      0              4722.4126      46.216041      20.047001      20.857         19323.865      4776.8573      4767.5293      4622.8513     -928.82975      1040.9224      1540.9733    
  30186500   258.49861     -358.03844     -282.28988     -358.00049      0              2788.7515      46.123231      20.047001      20.857         19285.059      2909.9342      3512.2411      1944.0793      368.8344       595.06359      509.00699    
  30187000   244.8513      -356.44425     -284.6948      -356.40888      0              3278.2064      46.167401      20.047001      20.857         19303.527      3329.6443      3500.8278      3004.1473      26.688216     -1345.3969     -938.26326    
  30187500   260.80762     -356.58544     -280.16026     -356.55668      0              3427.3368      46.194221      20.047001      20.857         19314.742      3853.8504      3573.9689      2854.1911      1261.7866      632.03907     -1378.3595    
  30188000   257.40634     -356.25883     -280.83034     -356.24651      0              3597.4064      46.123122      20.047001      20.857         19285.014      2886.0347      3895.1956      4010.989      -1457.0747      940.20935     -625.0231     
  30188500   257.17014     -357.09371     -281.73443     -357.066        0              5284.7859      46.052942      20.047001      20.857         19255.67       4600.5472      5970.8276      5282.983      -909.64383      425.80804      332.35735    
  30189000   244.15129     -356.88681     -285.34248     -356.86901      0              2770.1016      46.317511      20.047001      20.857         19366.292      5909.9439      1800.0266      600.33441     -127.20749      506.01384      294.06555    
  30189500   251.85283     -355.14772     -281.34659     -355.12525      0              4692.9637      46.173087      20.047001      20.857         19305.905      6364.1434      4066.317       3648.4306     -1521.3772      293.27268      2667.2317    
  30190000   252.13138     -355.27941     -281.39665     -355.23959      0              4725.5762      46.126229      20.047001      20.857         19286.313      5679.8996      6253.7525      2243.0765      615.74679     -566.68809      876.49571    
  30190500   252.59048     -354.98416     -280.96688     -354.95058      0              4333.9258      46.128696      20.047001      20.857         19287.344      3169.9532      5053.4073      4778.417       793.10832     -833.51905     -900.60186    
  30191000   251.5732      -354.90324     -281.18406     -354.87606      0              5391.967       46.265866      20.047001      20.857         19344.698      5334.8456      6661.7889      4179.2666      645.29542     -46.15386       924.07001    
  30191500   252.32556     -352.29193     -278.35228     -352.26332      0              2541.5178      46.333814      20.047001      20.857         19373.108      4177.6468     -235.33091      3682.2374     -1277.4281      961.77156     -553.86936    
  30192000   263.0489      -355.49231     -278.41036     -355.45259      0              4792.2993      45.9534        20.047001      20.857         19214.049      5626.7903      2956.9833      5793.1243      193.4814      -921.43128     -797.50531    
  30192500   256.89912     -354.80975     -279.52989     -354.77241      0              6570.2807      45.940888      20.047001      20.857         19208.818      6510.3277      7237.0525      5963.4619     -554.3008       880.46958     -172.01528    
  30193000   255.15629     -359.15226     -284.38311     -359.11223      0              2152.9924      46.399518      20.047001      20.857         19400.581      1546.631       1111.5757      3800.7706      154.39189      398.59881     -534.33887    
  30193500   255.37067     -358.40867     -283.5767      -358.36439      0              3482.9708      46.209061      20.047001      20.857         19320.946      5137.0716      2659.3582      2652.4826     -273.17061     -73.565353     -134.88028    
  30194000   252.19262     -357.54782     -283.64713     -357.51374      0              5286.5938      45.983743      20.047001      20.857         19226.736      5138.9574      6181.1286      4539.6954      463.07076      1148.2522     -259.2619     
  30194500   259.87754     -356.62757     -280.47493     -356.59713      0              2003.0908      46.185389      20.047001      20.857         19311.049      3282.9335      1303.5277      1422.8113      509.83846      286.28591      493.56147    
  30195000   257.60669     -353.77385     -278.28665     -353.73424      0              3946.9158      46.1304        20.047001      20.857         19288.057      4014.3904      4315.769       3510.588       800.87908      399.40909     -653.61256    
  30195500   252.53615     -356.10825     -282.10689     -356.06932      0              5073.7388      46.340473      20.047001      20.857         19375.892      5789.0352      4761.3202      4670.8611      243.67657      228.45071      1193.0555    
  30196000   252.52293     -356.85239     -282.8549      -356.81294      0              1075.8535      46.257755      20.047001      20.857         19341.306      4284.8617      4.6347077     -1061.936      -1971.8503      281.73331     -1138.2808    
  30196500   255.58326     -354.65524     -279.76097     -354.61637      0              5388.4939      45.955177      20.047001      20.857         19214.792      4272.5347      5247.3522      6645.5948      206.66212      304.46021     -1265.6981    
  30197000   255.65651     -353.39588     -278.48016     -353.357        0              5916.2451      46.13763       20.047001      20.857         19291.08       5687.6156      5718.1494      6342.9703      503.94736     -56.696774     -1318.3757    
  30197500   251.09293     -353.56125     -279.98279     -353.52968      0              1673.7745      46.38651       20.047001      20.857         19395.141      1302.6915      1699.2625      2019.3694     -542.8214       2305.6976      179.10643    
  30198000   250.73535     -356.46076     -282.98709     -356.43671      0              1588.0863      46.270648      20.047001      20.857         19346.697      2526.0723      557.05083      1681.1357      747.71178      2053.6155     -628.89773    
  30198500   255.15137     -358.95058     -284.18287     -358.92636      0              4648.4488      46.08612       20.047001      20.857         19269.542      6669.2967      2292.4404      4983.6092      267.69572     -1364.3567      1133.0745    
  30199000   253.05249     -355.06051     -280.90785     -355.02317      0              4455.5569      45.920346      20.047001      20.857         19200.229      7143.6607      1931.0474      4291.9624     -301.94601      193.80976      1585.0343    
  30199500   253.84125     -354.83519     -280.45139     -354.80445      0              4750.8149      46.054468      20.047001      20.857         19256.308      6748.9487      2420.8698      5082.626      -253.09778     -1129.6696      690.81159    
  30200000   258.68356     -356.21724     -280.41449     -356.18541      0              4261.9603      46.309879      20.047001      20.857         19363.101      4740.3216      4265.8653      3779.694      -1257.7508      21.76969      -1602.3138    
  30200500   258.6428      -357.25509     -281.46428     -357.22536      0              3979.8623      46.2361        20.047001      20.857         19332.252      5846.7574      2499.9698      3592.8597      637.97818      500.3943       2.1914708    
  30201000   250.46517     -355.61322     -282.21872     -355.5815       0              2771.2507      46.157981      20.047001      20.857         19299.589      2706.5869      1951.0574      3656.1079      153.08623     -619.69515      2182.285     
  30201500   260.65429     -356.07953     -279.69928     -356.04334      0              3561.8056      46.416144      20.047001      20.857         19407.532      2850.5256      4340.3046      3494.5867     -402.22485     -122.0542      -2269.4887    
  30202000   254.10013     -353.86624     -279.40658     -353.84761      0              3244.692       46.399438      20.047001      20.857         19400.547      2558.9201      4943.6387      2231.5172      1.9624493     -1123.2969      1770.5887    
  30202500   249.73371     -355.50809     -282.32793     -355.47347      0              2908.0409      46.135286      20.047001      20.857         19290.1        4287.0873      1364.2391      3072.7963     -653.88633      1567.5632     -1209.4497    
  30203000   258.96325     -354.0481      -278.16339     -354.03108      0              7133.6201      45.918823      20.047001      20.857         19199.592      6943.9936      7009.072       7447.7946     -668.58486     -912.59587     -2532.524     
  30203500   253.79997     -355.19761     -280.82591     -355.19631      0              3038.9128      46.277361      20.047001      20.857         19349.504      5603.784       3413.5805      99.373828     -1254.1779      2015.0043     -872.64398    
  30204000   257.67183     -357.30952     -281.80323     -357.28425      0              3864.5279      46.520935      20.047001      20.857         19451.347      2043.1666      4360.3951      5190.0221     -102.97322      410.29927     -581.43635    
  30204500   258.59679     -356.25722     -280.4799      -356.22579      0              5265.9523      46.351533      20.047001      20.857         19380.517      4413.8479      8324.4034      3059.6056      1355.6163     -69.508202     -716.9821     
  30205000   258.41739     -355.02805     -279.30329     -355.00391      0              4257.6907      46.066636      20.047001      20.857         19261.396      6253.2219      719.67282      5800.1774     -343.4003      -2530.177       2131.3422    
  30205500   255.1896      -354.80825     -280.02934     -354.80816      0              4796.5294      46.158196      20.047001      20.857         19299.679      5827.0656      4399.882       4162.6405     -649.09294      145.6775       1217.5131    
  30206000   252.77356     -354.10508     -280.03415     -354.08117      0              3635.0343      46.247221      20.047001      20.857         19336.902      3136.7927      3477.4004      4290.9099     -600.13704     -2216.4786      411.10934    
  30206500   256.37768     -356.41073     -281.28367     -356.38618      0              4416.6641      46.159429      20.047001      20.857         19300.194      4474.9324      3710.5128      5064.5472      1049.4151      1413.6643     -726.9853     
  30207000   252.17666     -355.38556     -281.48954     -355.35518      0              3673.1868      46.056729      20.047001      20.857         19257.253      4025.9612      3825.6052      3167.9938     -762.52061     -780.30412      470.83808    
  30207500   254.98943     -357.12806     -282.4078      -357.1044       0              5498.1109      45.952848      20.047001      20.857         19213.819      6213.9674      2932.8797      7347.4855      1809.9241     -2969.7524      882.31545    
  30208000   256.94338     -352.99287     -277.70005     -352.98564      0              2389.459       46.161785      20.047001      20.857         19301.179      1589.9194      2804.7057      2773.7519     -312.53867     -279.51791     -269.62493    
  30208500   253.20629     -355.0634      -280.86567     -355.03513      0              2936.1764      46.416918      20.047001      20.857         19407.856      3960.4813      3504.7844      1343.2637      1002.6815     -1523.411       1092.1808    
  30209000   252.54542     -354.18002     -280.17594     -354.15281      0              5113.6478      46.202952      20.047001      20.857         19318.392      7398.6585      3833.8284      4108.4565     -4.4311878      131.7469       3390.6637    
  30209500   251.2549      -353.9085      -280.28258     -353.88536      0              6566.28        46.013176      20.047001      20.857         19239.043      8534.3255      5805.7452      5358.7694      796.00829      868.02755      920.19986    
  30210000   261.06703     -356.75321     -280.25202     -356.71362      0              4571.6143      45.972227      20.047001      20.857         19221.921      5356.8127      5524.6565      2833.3737     -240.08752      1770.0381      893.32664    
  30210500   249.74151     -357.36859     -284.18615     -357.34648      0              5109.0537      46.39141       20.047001      20.857         19397.19       6674.1841      4881.6993      3771.2778     -137.41077      464.19717      2162.988     
  30211000   252.23356     -354.61552     -280.70283     -354.59234      0              4654.1451      46.169028      20.047001      20.857         19304.208      3184.1787      6301.7265      4476.5302      1157.971      -53.683226     -920.86545    
  30211500   252.06685     -352.14092     -278.27708     -352.10929      0              6002.595       45.831292      20.047001      20.857         19162.993      9278.714       4614.9087      4114.1622     -989.08489     -487.31229      163.98065    
  30212000   254.24652     -356.41866     -281.9161      -356.39283      0              5663.461       46.135704      20.047001      20.857         19290.274      6735.3981      4701.7543      5553.2305      834.04624     -2761.5287      604.9566     
  30212500   252.02395     -355.67126     -281.81999     -355.6567       0              3855.4636      46.303244      20.047001      20.857         19360.326      2586.4184      5144.8732      3835.0991     -1426.1424      189.42738      2029.4588    
  30213000   249.82692     -354.94694     -281.73947     -354.90827      0              4292.2377      46.160484      20.047001      20.857         19300.635      5508.4631      2177.7499      5190.5         51.379597      636.04236     -588.51676    
  30213500   249.4138      -357.36832     -284.28191     -357.33059      0              5309.0986      46.351253      20.047001      20.857         19380.4        4606.4173      6710.5159      4610.3625     -313.14562      200.15166      776.73849    
  30214000   251.07738     -355.51634     -281.94245     -355.50109      0              2841.5908      46.4105        20.047001      20.857         19405.172      4511.0467      1150.3453      2863.3805     -1213.7613     -120.27567     -322.71162    
  30214500   245.36627     -355.54668     -283.64633     -355.52452      0              5088.2832      46.219205      20.047001      20.857         19325.188      8230.5419      3907.8778      3126.4299     -591.48688      650.21839      1948.4402    
  30215000   247.61758     -355.5174      -282.95734     -355.48986      0              2657.3383      46.175136      20.047001      20.857         19306.762      3916.886       3002.569       1052.5601      1331.766       1090.4655     -1198.7306    
  30215500   253.55111     -353.92396     -279.62519     -353.89438      0              6072.1256      46.148211      20.047001      20.857         19295.504      7597.8681      4364.112       6254.3969     -674.00516      81.104344      253.97963    
  30216000   260.29417     -353.70887     -277.43416     -353.67751      0              2494.3759      46.305329      20.047001      20.857         19361.198      2771.0762      3194.561       1517.4906      1574.6561     -1069.6363     -1191.0414    
  30216500   258.55689     -354.07295     -278.30732     -354.04328      0              4106.2334      46.338008      20.047001      20.857         19374.862      5322.0381      6371.7997      624.86232     -1672.3502     -547.00665      580.98914    
  30217000   257.13759     -357.81069     -282.46096     -357.79187      0              4406.9657      46.500019      20.047001      20.857         19442.602      6609.5745      2456.974       4154.3486      702.15738     -1339.8461      459.93363    
  30217500   251.82884     -355.47567     -281.68157     -355.44025      0              3196.9339      46.440973      20.047001      20.857         19417.913      4217.7447      4408.6352      964.42179      631.99633      836.74624      1069.8761    
  30218000   255.54964     -353.97291     -279.0885      -353.95846      0              5853.6388      46.207936      20.047001      20.857         19320.476      7177.9071      4944.8412      5438.1681     -645.7709      -333.53552     -64.559901    
  30218500   249.67719     -356.26744     -283.10385     -356.23484      0              4713.1301      46.254539      20.047001      20.857         19339.962      4336.4031      6594.1173      3208.87        160.38108      714.45635      162.11224    
  30219000   253.01929     -357.08686     -282.94392     -357.05192      0              5237.0988      46.308556      20.047001      20.857         19362.547      4014.2095      6575.8582      5121.2288     -826.68984      296.81086     -709.04454    
  30219500   256.12113     -354.65449     -279.60261     -354.61953      0              6287.5202      46.056102      20.047001      20.857         19256.991      6378.4541      5896.2423      6587.8643      142.99224     -1310.2199      405.00064    
  30220000   250.74707     -353.00979     -279.53269     -352.97096      0              4186.5808      45.857253      20.047001      20.857         19173.848      4957.5506      5209.6607      2392.531      -1144.7971      1596.5722     -276.06958    
  30220500   248.48459     -354.03592     -281.22179     -354.02317      0              3932.5763      46.270072      20.047001      20.857         19346.456      4073.6265      3071.1147      4652.9877      917.61258     -265.65653      519.97356    
  30221000   257.44017     -354.83521     -279.39681     -354.80963      0              4232.9397      46.617384      20.047001      20.857         19491.675      4171.2273      5517.6874      3009.9043     -472.54492      103.76884      1070.5385    
  30221500   255.00099     -354.02548     -279.30184     -354.01745      0              1007.8094      46.548569      20.047001      20.857         19462.902      810.24018      999.14457      1214.0436     -494.4158       799.34949      339.31826    
  30222000   252.68468     -356.73023     -282.68534     -356.70627      0              7490.2234      46.063435      20.047001      20.857         19260.057      8292.7724      6302.9554      7874.9425     -286.75179      986.99982     -301.67762    
  30222500   260.04989     -356.62829     -280.42516     -356.59473      0              4416.6398      46.14428       20.047001      20.857         19293.86       5050.8811      4108.2892      4090.749       239.85276      706.48012     -453.3418     
  30223000   253.53765     -357.69048     -283.39565     -357.6786       0              3427.7953      46.442275      20.047001      20.857         19418.458      3497.5565      3641.985       3143.8443     -551.6341       1934.6802     -903.83977    
  30223500   256.23378     -355.34152     -280.25663     -355.32943      0              4672.8477      46.409585      20.047001      20.857         19404.79       2300.4158      6664.7761      5053.3513     -1821.3165      169.13186     -21.493994    
  30224000   257.41112     -353.9987      -278.56882     -353.97865      0              4769.8827      46.313176      20.047001      20.857         19364.479      4831.1434      5992.5715      3485.9333     -1154.8132      1435.0486     -2477.6263    
  30224500   258.05048     -354.36403     -278.74679     -354.33654      0              3912.2443      46.284091      20.047001      20.857         19352.318      5802.41        2777.5017      3156.8212     -854.32324      1246.0791     -759.34679    
  30225000   256.62884     -351.46273     -276.26207     -351.43709      0              3123.1912      46.405945      20.047001      20.857         19403.268      4475.7927      1706.9188      3186.8621     -24.107666      164.06406     -770.20289    
  30225500   261.49084     -354.0379      -277.41252     -354.01149      0              3025.8285      46.307337      20.047001      20.857         19362.038      4070.8879      2514.0611      2492.5366      44.428482     -349.2769       1082.2319    
  30226000   260.39077     -354.99393     -278.6909      -354.96541      0              4425.6566      46.506697      20.047001      20.857         19445.394      5740.02        3675.4306      3861.5193      365.99394     -8.4614127      522.87096    
  30226500   257.68805     -358.34567     -282.83463     -358.31976      0              3113.6341      46.765387      20.047001      20.857         19553.558      5241.4781      1009.3778      3090.0464      1798.6319      1668.1679      128.41618    
  30227000   256.83194     -355.66422     -280.40405     -355.63656      0              5324.6092      46.387075      20.047001      20.857         19395.378      7531.9789      5494.7096      2947.1391      840.6237       921.45918      275.15342    
  30227500   266.44152     -354.79517     -276.71908     -354.77809      0              5332.5891      46.113454      20.047001      20.857         19280.971      6904.3681      3701.0618      5392.3372     -217.79942      382.558       -78.648322    
  30228000   255.87929     -356.91711     -281.9361      -356.89055      0              4183.244       46.295311      20.047001      20.857         19357.009      5575.7683      3993.2108      2980.753      -254.80315      557.62877      457.50749    
  30228500   260.26167     -356.59261     -280.32742     -356.5622       0              2937.9915      46.51361       20.047001      20.857         19448.285      3255.9906      2838.686       2719.2978      1190.1916     -321.76444     -1976.1303    
  30229000   257.87447     -356.31672     -280.75105     -356.29608      0              4599.3304      46.518972      20.047001      20.857         19450.527      4938.7715      6084.1221      2775.0976     -444.29968      406.97702      1235.7453    
  30229500   261.13981     -354.53811     -278.01559     -354.5139       0              6839.7863      46.253471      20.047001      20.857         19339.515      6311.5336      7492.1716      6715.6538     -1473.7957     -1328.8575      142.47993    
  30230000   262.44719     -355.74975     -278.84413     -355.71918      0              3458.0967      46.342381      20.047001      20.857         19376.69       4926.1971      1308.6133      4139.4797     -1236.1417      177.38714      938.99257    
  30230500   252.41297     -355.18095     -281.21568     -355.13697      0              4612.326       46.091577      20.047001      20.857         19271.824      7286.93        3924.5602      2625.4879      46.33694       58.005215     -1353.4479    
  30231000   260.16488     -355.28323     -279.0464      -355.24919      0              5270.8769      46.087353      20.047001      20.857         19270.058      6076.8495      5259.4423      4476.3388      1283.5807      612.85417      1287.7299    
  30231500   249.893       -352.78715     -279.56032     -352.75709      0              5965.9971      46.395282      20.047001      20.857         19398.809      7051.8637      5473.1196      5373.0081     -449.03176     -259.4542       1118.5963    
  30232000   254.26257     -353.8529      -279.34564     -353.81238      0              4085.283       46.300215      20.047001      20.857         19359.06       5777.1666      2735.7361      3742.9462      1922.4935      787.68768     -347.43141    
  30232500   262.9181      -356.25208     -279.20846     -356.21057      0              6478.8222      46.316555      20.047001      20.857         19365.892      6929.1115      7455.4031      5051.9519     -716.8432       747.13758     -889.05063    
  30233000   255.53515     -355.46471     -280.58454     -355.44786      0              5376.926       46.530238      20.047001      20.857         19455.237      5460.6119      7272.1886      3397.9777      531.92439     -1146.2929     -1096.9336    
  30233500   254.13534     -353.50577     -279.03579     -353.4977       0              4941.2355      46.490496      20.047001      20.857         19438.62       6113.3389      4453.6326      4256.735      -788.0955       942.43132      921.68249    
  30234000   257.91403     -357.72324     -282.14598     -357.70628      0              3059.527       46.436866      20.047001      20.857         19416.197      4039.9078      3362.186       1776.4873     -976.02285      157.55893      2489.5145    
  30234500   254.24369     -356.4156      -281.91387     -356.37619      0              2646.1573      46.317444      20.047001      20.857         19366.264      2533.698       2820.294       2584.4799      1721.4911     -1555.5801      608.92232    
  30235000   256.87002     -355.25881     -279.98748     -355.239        0              5134.1363      46.391716      20.047001      20.857         19397.318      6876.2589      4383.3079      4142.8421     -1078.371      -1378.8131     -368.82084    
  30235500   254.07446     -358.26818     -283.81604     -358.24247      0              6002.4267      46.230016      20.047001      20.857         19329.708      7494.1198      5084.8919      5428.2684      725.48113      1053.2894      2286.4201    
  30236000   261.60831     -356.99696     -280.33716     -356.95874      0              4090.1496      46.197868      20.047001      20.857         19316.266      5433.4415      3413.2135      3423.7938      877.52734      865.00238     -985.81056    
  30236500   254.1663      -356.25568     -281.77663     -356.25073      0              2689.8951      46.363928      20.047001      20.857         19385.699      2286.1181      3738.2867      2045.2806      383.89092     -1476.277       862.4472     
  30237000   252.64034     -356.42418     -282.39229     -356.40821      0              5468.9985      46.157081      20.047001      20.857         19299.213      6771.5915      4639.9863      4995.4177      2056.0965     -1175.0168      1235.3784    
  30237500   253.00117     -354.47323     -280.3356      -354.43868      0              4609.8764      46.267188      20.047001      20.857         19345.25       7113.3205      2425.7696      4290.539      -253.64223     -270.37803      931.21422    
  30238000   254.91151     -354.95056     -280.25314     -354.92587      0              3451.8875      46.411787      20.047001      20.857         19405.71       4612.0203      2258.0353      3485.6071      315.03834     -487.26775      1351.1288    
  30238500   252.12902     -356.69699     -282.81493     -356.67327      0              5537.9795      46.248736      20.047001      20.857         19337.535      6465.1225      5200.9282      4947.8877     -159.95514      1644.7853      269.85878    
  30239000   252.06672     -357.68455     -283.82074     -357.66842      0              5038.3237      46.02353       20.047001      20.857         19243.372      5845.9034      6393.9102      2875.1574      1016.8625      127.3916       478.60615    
  30239500   251.41537     -356.65186     -282.97892     -356.63294      0              5422.6259      46.057817      20.047001      20.857         19257.708      8274.7673      5930.47        2062.6404      777.3239       2741.7382     -622.3576     
  30240000   250.86521     -355.03127     -281.51955     -355.01833      0              4414.2834      46.411968      20.047001      20.857         19405.786      5938.4172      2781.4279      4523.0051      43.377636     -652.67284      884.5635     
  30240500   249.83782     -357.17545     -283.96479     -357.16034      0              5284.2217      46.261196      20.047001      20.857         19342.745      4759.558       6513.0617      4580.0454     -75.876274     -830.00905     -495.38269    
  30241000   256.46372     -355.39287     -280.24061     -355.36696      0              2912.5939      46.046835      20.047001      20.857         19253.116      3553.2632      3088.7774      2095.7411     -803.05396     -895.53463     -125.31019    
  30241500   256.2325      -355.08937     -280.00486     -355.07581      0              4015.0923      46.13212       20.047001      20.857         19288.776      1930.2393      6463.7158      3651.3218      1070.4225      1125.8035      1563.0904    
  30242000   251.73582     -354.18722     -280.42038     -354.17919      0              6815.1458      46.476342      20.047001      20.857         19432.702      6915.6359      8644.7149      4885.0865     -241.04302      632.88762     -301.92787    
  30242500   254.71486     -355.17791     -280.53811     -355.16041      0              5535.4891      46.365244      20.047001      20.857         19386.25       5706.2979      6446.2387      4453.9306      359.70234      57.356415      345.79614    
  30243000   253.1232      -353.36726     -279.19388     -353.35452      0              6408.7768      45.935783      20.047001      20.857         19206.683      7760.2307      6298.1319      5167.9679      1272.3736      753.25087     -125.00489    
  30243500   262.49306     -355.02837     -278.10931     -355.00171      0              5522.5938      45.980347      20.047001      20.857         19225.316      5569.1636      4693.1729      6305.4448      136.06595     -1850.5396      2089.7987    
  30244000   248.48047     -353.73545     -280.92253     -353.71582      0              4775.3461      46.60269       20.047001      20.857         19485.531      5997.5684      4317.7847      4010.6852      721.23429      205.04226     -836.17808    
  30244500   265.35263     -357.28527     -279.52826     -357.25765      0              3080.152       46.597274      20.047001      20.857         19483.266      2253.1203      5257.1826      1730.153      -1536.7929     -873.70068     -256.85298    
  30245000   261.87689     -354.49466     -277.75616     -354.48414      0              3430.2654      46.211896      20.047001      20.857         19322.132      3214.705       4277.4734      2798.6178      145.86155      147.78404     -391.66569    
  30245500   258.88806     -355.31704     -279.45436     -355.3107       0              6490.9336      46.420732      20.047001      20.857         19409.45       6189.1753      5553.6048      7730.0206     -594.80522     -622.7816       803.88319    
  30246000   250.98465     -354.77005     -281.22332     -354.73982      0              7263.8306      46.491052      20.047001      20.857         19438.852      9879.8837      5609.5937      6302.0144      39.696769      239.97933     -1114.1473    
  30246500   249.68431     -355.56305     -282.39737     -355.54919      0              3199.5754      46.295817      20.047001      20.857         19357.221      4311.2044      3476.1689      1811.3527      177.39436     -918.9433      -2177.8873    
  30247000   253.58316     -354.26942     -279.96125     -354.24964      0              6977.6677      46.157289      20.047001      20.857         19299.3        11070.803      3082.0579      6780.1417     -1312.3229      113.7158       235.09581    
  30247500   252.14984     -353.77567     -279.88751     -353.75547      0              2884.8029      46.497897      20.047001      20.857         19441.715      6463.2877      194.74035      1996.3806     -486.34433      442.69663      622.83354    
  30248000   257.68876     -355.88422     -280.37298     -355.86779      0              4614.6001      46.467238      20.047001      20.857         19428.896      5790.8428      4569.7434      3483.2141      1238.3435      62.663789     -517.3367     
  30248500   255.23178     -353.18096     -278.3897      -353.15423      0              3505.2029      46.455628      20.047001      20.857         19424.041      2941.9044      3380.3611      4193.3431      423.14037      579.0774      -195.07931    
  30249000   246.88826     -352.342       -279.99565     -352.35248      0              3603.0351      46.706159      20.047001      20.857         19528.793      3787.6946      3788.1461      3233.2646      800.42186     -1745.8958     -2076.1003    
  30249500   244.46172     -357.73069     -286.0954      -357.71754      0              3683.1143      46.568747      20.047001      20.857         19471.339      2433.5692      6075.5803      2540.1935      568.65452     -954.89472      363.84679    
  30250000   250.49815     -355.72459     -282.32043     -355.71377      0              4745.2562      46.377866      20.047001      20.857         19391.527      5100.388       5145.9012      3989.4793      28.418216     -1431.7518     -1085.869     
  30250500   246.90298     -355.37911     -283.02845     -355.34889      0              3050.9537      46.357895      20.047001      20.857         19383.177      5704.8782      2413.1269      1034.8559      322.2566      -1305.0768      287.94638    
  30251000   262.35099     -354.04278     -277.16535     -354.03101      0              3777.3441      46.299651      20.047001      20.857         19358.824      3235.6083      5541.2528      2555.1713     -661.42556      190.7873       921.09943    
  30251500   261.03578     -354.9852      -278.49316     -354.96394      0              3162.1608      46.530021      20.047001      20.857         19455.146      4754.0121      4375.0525      357.41783      544.94695     -1349.9822     -913.91495    
  30252000   260.38376     -353.63681     -277.33584     -353.62683      0              3192.7503      46.634484      20.047001      20.857         19498.824      2409.8898      4481.6844      2686.6766     -444.4202      -841.95027      992.09179    
  30252500   254.1085      -353.01534     -278.55323     -353.00262      0              4723.84        46.499084      20.047001      20.857         19442.211      4088.8816      6336.8189      3745.8194      40.598067      467.34203     -1248.6429    
  30253000   252.67825     -354.80797     -280.76497     -354.78647      0              3223.1473      46.193921      20.047001      20.857         19314.616      5449.0064      1459.6943      2760.7411      498.23393      1195.8686     -1037.1449    
  30253500   264.10587     -355.85947     -278.4678      -355.84965      0              2651.961       46.33852       20.047001      20.857         19375.076      4935.4316      1066.0039      1954.4476     -95.601453      1171.5111     -1064.7982    
  30254000   253.39277     -353.95006     -279.69768     -353.94109      0              4560.9916      46.549965      20.047001      20.857         19463.485      7199.9449      2722.8436      3760.1864     -763.99597      618.19762     -229.02697    
  30254500   254.7541      -355.50717     -280.85588     -355.49272      0              5468.6917      46.274804      20.047001      20.857         19348.435      6071.9211      3897.3686      6436.7855     -269.24537     -12.651751      618.79053    
[...]
  30787500   256.55142     -352.02654     -276.84857     -352.04058      0              4353.9414      46.190423      20.047001      20.857         19313.154      5549.1279      5393.0093      2119.6869     -957.90237      527.99424     -1640.4231    
  30788000   252.49467     -352.83424     -278.84504     -352.83563      0              3944.6281      46.217586      20.047001      20.857         19324.511      3735.6939      5982.6244      2115.5661     -190.85437     -188.38759     -898.19873    
  30788500   260.30115     -353.55031     -277.27354     -353.56571      0              4123.6165      46.456478      20.047001      20.857         19424.397      4257.4591      3021.9844      5091.406       491.27567      2208.6022     -1137.5886    
  30789000   257.37497     -354.27153     -278.85224     -354.26573      0              3994.8856      46.719198      20.047001      20.857         19534.245      2911.339       6406.779       2666.5389      605.45354     -275.19442      2190.8361    
  30789500   249.44638     -356.19203     -283.09607     -356.18433      0              2464.3467      46.341716      20.047001      20.857         19376.412      1674.0034      3142.596       2576.4407     -409.16461      1455.1529     -345.66972    
  30790000   247.86956     -354.30932     -281.67543     -354.28834      0              5836.2116      45.902069      20.047001      20.857         19192.587      9685.1441      3376.2466      4447.2442      201.12164     -1708.8664     -1371.4182    
  30790500   252.72367     -354.52585     -280.46954     -354.52746      0              1545.4018      46.492446      20.047001      20.857         19439.435      2744.1573      2034.6158     -142.56764     -251.05362      469.14294      1242.8601    
  30791000   258.82034     -354.25853     -278.4157      -354.2773       0              5615.594       46.549599      20.047001      20.857         19463.332      5383.4735      6513.0903      4950.2183      460.53783     -2490.7318     -868.39293    
  30791500   253.80976     -355.35468     -280.98011     -355.36509      0              4936.2715      46.239441      20.047001      20.857         19333.649      6043.3245      3213.0375      5552.4526      858.64701      1559.0064     -1726.767     
  30792000   250.98011     -354.66181     -281.11642     -354.67064      0              3483.771       46.2796        20.047001      20.857         19350.44       5168.498       4465.2523      817.56268      1149.7576     -461.12098      72.708067    
  30792500   254.52173     -354.49916     -279.91596     -354.503        0              6201.3327      46.282267      20.047001      20.857         19351.555      5423.5924      4805.2698      8375.1359      2561.1321      251.76204      2428.6676    
  30793000   247.6484      -353.14127     -280.57218     -353.15652      0              5293.8126      46.23927       20.047001      20.857         19333.578      6130.945       5373.7905      4376.7022      378.21884      1511.1488      21.739244    
  30793500   254.37081     -354.63318     -280.0942      -354.62153      0              4321.5526      46.078048      20.047001      20.857         19266.167      7423.1191      2026.0083      3515.5305     -441.48992      476.55292     -393.27059    
  30794000   256.70564     -355.978       -280.75484     -355.99133      0              5490.5987      46.525101      20.047001      20.857         19453.089      4689.5074      5871.0756      5911.2131      160.97026      990.29172      563.10008    
  30794500   253.18602     -352.79214     -278.60034     -352.80095      0              4730.6038      46.509733      20.047001      20.857         19446.663      4758.4299      5794.3034      3639.0781     -1245.564       434.37269      707.44263    
  30795000   262.37147     -353.29612     -276.41269     -353.28963      0              5035.2255      46.216794      20.047001      20.857         19324.18       4612.6489      3132.784       7360.2436     -96.597514     -1286.1049      15.470147    
  30795500   256.87481     -352.07209     -276.79936     -352.0571       0              5692.1315      46.273831      20.047001      20.857         19348.028      6082.299       6068.7844      4925.3111     -19.509541     -799.57851      1153.9522    
  30796000   253.00153     -351.36012     -277.22238     -351.37726      0              4627.2041      46.529208      20.047001      20.857         19454.807      4676.352       4571.3009      4633.9594      1209.4754     -1267.2856      736.04018    
  30796500   249.69948     -354.1012      -280.93107     -354.10251      0              3439.0298      46.49567       20.047001      20.857         19440.783      4591.7048      2962.3558      2763.0289     -766.02255      2506.9156      1624.799     
  30797000   251.14952     -356.99456     -283.39952     -356.97604      0              5784.5528      46.366873      20.047001      20.857         19386.931      7357.3909      5436.2843      4559.9833     -857.6128       414.36913      22.935357    
  30797500   254.91836     -357.17545     -282.47602     -357.19146      0              3753.2597      46.479537      20.047001      20.857         19434.038      5657.5856      2744.2193      2857.9741     -168.37169     -349.35667     -1298.8719    
  30798000   255.68938     -355.87572     -280.95035     -355.89071      0              5316.8774      46.374825      20.047001      20.857         19390.256      6803.5084      3666.1847      5480.9391      557.47277      324.08903      1406.6078    
  30798500   255.49031     -356.15634     -281.28931     -356.16         0              5533.7842      46.205592      20.047001      20.857         19319.496      5561.9507      6765.5547      4273.8472      346.83163     -778.12307      512.37718    
  30799000   256.57891     -355.1322      -279.94618     -355.11663      0              4573.7924      46.338538      20.047001      20.857         19375.083      5401.1269      5156.8177      3163.4325     -19.229398     -1772.4846      1602.0441    
  30799500   250.95322     -354.04806     -280.51054     -354.05012      0              3425.5459      46.488344      20.047001      20.857         19437.72       3791.1991      3577.2274      2908.2112      353.38659     -491.46131     -1263.9251    
  30800000   260.73671     -355.30254     -278.89815     -355.29855      0              4519.4144      46.226494      20.047001      20.857         19328.236      3683.295       3786.5637      6088.3846     -844.93505      1645.4699      1388.983     
  30800500   253.04745     -353.2257      -279.07451     -353.21844      0              2476.5975      46.174026      20.047001      20.857         19306.297      296.36759      3624.0129      3509.4121     -675.4872       742.39352     -323.1501     
  30801000   251.23832     -351.48034     -277.85929     -351.48806      0              3422.8792      46.220471      20.047001      20.857         19325.717      1022.408       4809.1234      4437.1062      147.71892      2043.6846      630.8545     
  30801500   252.75771     -353.55075     -279.48446     -353.54636      0              3969.4554      46.229326      20.047001      20.857         19329.42       6923.3159      3728.7194      1256.3308      410.0509      -335.83019     -2151.5619    
  30802000   260.85731     -354.98845     -278.54872     -354.98635      0              4929.3741      46.497037      20.047001      20.857         19441.355      6854.3716      3489.5843      4444.1664      925.20045      1557.4214     -912.80682    
  30802500   260.00608     -355.746       -279.55571     -355.74994      0              4098.645       46.54363       20.047001      20.857         19460.837      5242.1814      4246.4701      2807.2835     -1107.234      -742.85885      278.34132    
  30803000   253.66421     -354.9474      -280.61548     -354.94432      0              3907.8531      46.285514      20.047001      20.857         19352.913      2714.0307      5084.6979      3924.8307      255.95452      281.87772     -116.91904    
  30803500   253.3474      -355.86782     -281.62873     -355.86582      0              5671.8189      46.095894      20.047001      20.857         19273.629      5831.9014      5812.2659      5371.2894     -1008.2313     -453.42684     -558.48539    
  30804000   259.23955     -356.71568     -280.75        -356.70502      0              3941.6342      46.227678      20.047001      20.857         19328.731      4443.2105      4251.7459      3129.9462      1078.482      -712.52032      1562.9219    
  30804500   252.00051     -354.55797     -280.71357     -354.55445      0              2442.579       46.558996      20.047001      20.857         19467.261      2746.0297      1551.1737      3030.5336      358.29122     -553.09039     -1300.2752    
  30805000   255.91537     -354.06701     -279.07542     -354.0585       0              3625.3624      46.442783      20.047001      20.857         19418.67       5434.2463      4096.9708      1344.8701     -34.67821      -693.14949      381.93312    
  30805500   255.1395      -353.19405     -278.42982     -353.18383      0              4258.1722      46.119606      20.047001      20.857         19283.543      4841.289       3089.9027      4843.3248      744.13617     -2048.8539      66.747533    
  30806000   258.85196     -355.15285     -279.30074     -355.12602      0              2101.452       46.32089       20.047001      20.857         19367.704      3206.8928      1543.5537      1553.9094     -50.157083     -699.40595     -342.98863    
  30806500   257.3937      -357.18761     -281.76283     -357.17439      0              4455.49        46.294573      20.047001      20.857         19356.701      6111.0263      4425.0369      2830.4068     -404.83791      977.40228      491.91999    
  30807000   250.09097     -356.19346     -282.90862     -356.16032      0              5310.2596      46.1446        20.047001      20.857         19293.994      8656.699       3791.6149      3482.4649      1000.1008     -1547.804       599.74272    
  30807500   257.95755     -354.92842     -279.33841     -354.92003      0              3358.5299      46.218814      20.047001      20.857         19325.024      3433.9638      2622.3309      4019.2951      78.012772      454.0138      -1610.8041    
  30808000   255.5824      -354.36654     -279.47252     -354.34893      0              3818.1737      46.425901      20.047001      20.857         19411.611      4835.1528      3143.807       3475.5613      250.76884      1370.131       1575.138     
  30808500   254.63736     -358.30767     -283.69058     -358.28603      0              3712.9483      46.374999      20.047001      20.857         19390.328      5022.9028      2661.4299      3454.5122     -932.45908     -540.64761     -770.82793    
  30809000   251.91627     -356.28437     -282.46465     -356.26961      0              4581.3637      46.132561      20.047001      20.857         19288.96       6752.0312      6152.9114      839.14852     -24.772541      27.862991     -145.16519    
  30809500   248.8689      -355.82873     -282.90199     -355.8083       0              3377.8843      46.176577      20.047001      20.857         19307.364      3399.855       2981.7367      3752.0613      427.02884     -94.441635     -58.403427    
  30810000   252.0313      -355.71994     -281.86651     -355.70449      0              4072.8842      46.454989      20.047001      20.857         19423.774      3538.8801      5098.8539      3580.9187     -754.61034      568.0654      -1264.8963    
  30810500   247.87055     -353.50253     -280.86835     -353.48329      0              4983.8844      46.398818      20.047001      20.857         19400.288      5769.5991      6618.1676      2563.8864      53.369308     -675.91105      475.63137    
  30811000   253.76541     -353.73705     -279.37548     -353.71229      0              3720.7787      46.151172      20.047001      20.857         19296.742      6212.7364      2988.1936      1961.406      -860.78468      1278.6678      1260.0827    
  30811500   254.07095     -354.36882     -279.91771     -354.36134      0              2937.015       46.122338      20.047001      20.857         19284.686      1836.5136      3817.9662      3156.5654     -106.56689     -573.26015      80.412453    
  30812000   256.25713     -354.34351     -279.25178     -354.35088      0              4530.4019      46.099471      20.047001      20.857         19275.125      5387.4549      4809.0129      3394.738      -3001.522      -1023.4622     -285.32907    
  30812500   256.25725     -352.7788      -277.68704     -352.77779      0              5255.3226      46.446901      20.047001      20.857         19420.392      4974.1527      6206.1778      4585.6372     -276.17529     -680.22433     -379.39261    
  30813000   251.97558     -353.11962     -279.28252     -353.12952      0              2062.5891      46.590127      20.047001      20.857         19480.278      1333.6114      2466.7764      2387.3796     -407.71275      557.11134      471.32477    
  30813500   256.30717     -355.07841     -279.97202     -355.04955      0              6436.5128      45.902098      20.047001      20.857         19192.599      7150.9176      6438.0487      5720.5721      231.3297      -82.117557     -91.894283    
  30814000   261.8686      -353.70988     -276.9738      -353.70242      0              5461.0193      45.810228      20.047001      20.857         19154.186      7424.7191      5392.9483      3565.3906     -1564.0916     -2535.1576     -733.86903    
  30814500   253.81518     -352.94427     -278.56811     -352.95162      0              3776.1621      46.152682      20.047001      20.857         19297.373      4168.7838      3784.4483      3375.2541      1415.9442      1288.1035      357.91431    
  30815000   251.16379     -354.71297     -281.11376     -354.72133      0              6010.8984      46.274172      20.047001      20.857         19348.171      7182.0563      4422.7011      6427.9377     -531.14494     -1264.7422     -507.21648    
  30815500   259.94446     -352.96484     -276.7926      -352.96794      0              4350.9144      46.202819      20.047001      20.857         19318.336      5339.1824      3585.0849      4128.476       546.45671      744.21523      142.07612    
  30816000   250.8761      -353.48759     -279.97268     -353.4846       0              2898.5235      46.438398      20.047001      20.857         19416.837      1174.1736      3985.0927      3536.304      -378.4427      -2761.8755     -776.85874    
  30816500   246.90101     -356.95155     -284.60147     -356.94827      0              4895.8665      46.342593      20.047001      20.857         19376.779      4968.0053      6093.2543      3626.34       -1322.6476      1687.6034      348.80864    
  30817000   249.66544     -356.23576     -283.07561     -356.21489      0              2882.8185      45.916596      20.047001      20.857         19198.661      1726.9198      2728.4482      4193.0876     -1362.3698     -32.536182      1144.5629    
  30817500   256.81345     -357.7083      -282.45355     -357.68366      0              4328.7176      45.952152      20.047001      20.857         19213.528      4063.0696      5920.4907      3002.5925      220.46911      341.36618     -471.17551    
  30818000   256.56438     -354.44025     -279.25848     -354.43134      0              4083.9349      46.215952      20.047001      20.857         19323.828      4850.1425      3348.2747      4053.3875     -445.1408      -153.68813      275.19083    
  30818500   252.97494     -355.40753     -281.27758     -355.37888      0              5138.1312      46.059597      20.047001      20.857         19258.452      7597.2909      2679.8443      5137.2585      279.91245      675.0642       510.55727    
  30819000   255.83509     -356.13574     -281.16768     -356.0985       0              6076.0876      45.867772      20.047001      20.857         19178.246      6750.1078      6220.4733      5257.6817      350.3987       843.22105      2780.3077    
  30819500   251.23883     -354.40395     -280.78274     -354.39191      0              3903.9261      46.154155      20.047001      20.857         19297.989      4646.9036      4730.6714      2334.2034     -151.73062     -1002.6762     -1544.7632    
  30820000   253.25462     -355.02443     -280.81253     -355.03433      0              4427.9624      46.105416      20.047001      20.857         19277.61       6087.8486      2728.3978      4467.6409     -218.25236     -402.06384      611.19121    
  30820500   254.56965     -352.43197     -277.83472     -352.42771      0              4255.4722      46.122722      20.047001      20.857         19284.846      5615.6283      2269.3714      4881.417      -871.93857     -1717.5315      894.26709    
  30821000   245.79042     -352.06605     -280.04141     -352.0539       0              2959.6774      46.129202      20.047001      20.857         19287.556      2452.5678      3324.6288      3101.8356      650.51442      683.53821     -590.90189    
  30821500   263.2041      -354.84215     -277.71473     -354.82784      0              4714.3342      46.161659      20.047001      20.857         19301.127      5440.165       2927.4687      5775.3689     -687.99605      99.592928      593.867      
  30822000   254.62206     -354.87117     -280.25856     -354.85873      0              3824.0246      46.0267        20.047001      20.857         19244.698      2040.3568      6078.4745      3353.2424     -1778.0445     -327.69232      910.13132    
  30822500   254.31647     -355.86209     -281.33903     -355.84605      0              4507.4272      45.911929      20.047001      20.857         19196.71       5826.2012      4300.0229      3396.0575     -745.97659      1515.1177      284.11189    
  30823000   256.58017     -354.83376     -279.64737     -354.82618      0              4812.3538      46.184741      20.047001      20.857         19310.778      5143.07        4782.407       4511.5843     -87.00175       422.89917      2258.0882    
  30823500   257.69297     -351.80272     -276.29024     -351.80802      0              4027.8192      46.24935       20.047001      20.857         19337.792      4045.0391      1997.2259      6041.1927      256.95729     -964.47311     -1107.5437    
  30824000   255.04583     -353.75916     -279.02238     -353.75032      0              3413.8119      46.100982      20.047001      20.857         19275.756      5307.0477      1976.138       2958.2501      656.90575      1711.8735      124.68611    
  30824500   257.9075      -351.35423     -275.77889     -351.35232      0              5147.2051      45.944777      20.047001      20.857         19210.444      5342.8677      5038.8611      5059.8864     -306.16492      366.16046     -2102.3706    
  30825000   247.75162     -354.54033     -281.941       -354.54392      0              3508.2075      45.947563      20.047001      20.857         19211.609      4420.8304      1579.8093      4523.9828      730.68542     -489.45261     -244.22498    
  30825500   250.11041     -353.46326     -280.17272     -353.45957      0              2628.6762      46.064208      20.047001      20.857         19260.381      2313.6547      2362.1369      3210.237      -123.49129      307.19746      1351.5985    
  30826000   258.98863     -354.82069     -278.92854     -354.82374      0              5729.4256      46.075879      20.047001      20.857         19265.261      4763.6504      6223.6802      6200.9461     -523.17505     -179.69993      1742.1126    
ERROR on proc 0: Cannot open restart file restart.lmp.0: Permission denied (../write_restart.cpp:233)
Last command: run             40000000 upto
