LAMMPS (23 Jun 2022)
echo both

include		in.partitions
variable        pid world 0
include		in.temp
variable	temperature equal 255.0
variable        tempDamp equal 0.100 # this is 0.1 ps
include		in.pressure
variable        pressure equal 5066.25
variable        pressureDamp equal 1.0 #this is 1ps
include		in.seed
variable        seed world 745823

units           metal
atom_style	full
read_restart	restart.lmp.${pid}
read_restart	restart.lmp.0
Reading restart file ...
  restart file = 23 Jun 2022, LAMMPS = 23 Jun 2022
  restoring atom style full from restart
  orthogonal box = (0.539935 0 0) to (46.910764 20.047001 20.857)
  4 by 1 by 1 MPI processor grid
Summary of lammps deepmd module ...
  >>> Info of deepmd-kit:
  installed to:       /u/sigbjobo/software/DEEPMD_FROM_SOURCE/deepmd-kit/install
  source:             v2.1.3
  source branch:       master
  source commit:      5a32c49
  source commit at:   2022-07-01 09:52:58 +0800
  surpport model ver.:1.1 
  build float prec:   double
  build with tf inc:  /u/sigbjobo/software/DEEPMD_FROM_SOURCE/tensorflow/install/include;/u/sigbjobo/software/DEEPMD_FROM_SOURCE/tensorflow/install/include
  build with tf lib:  /u/sigbjobo/software/DEEPMD_FROM_SOURCE/tensorflow/install/lib/libtensorflow_cc.so;/u/sigbjobo/software/DEEPMD_FROM_SOURCE/tensorflow/install/lib/libtensorflow_framework.so
  set tf intra_op_parallelism_threads: 0
  set tf inter_op_parallelism_threads: 0
  >>> Info of lammps module:
  use deepmd-kit at:  /u/sigbjobo/software/DEEPMD_FROM_SOURCE/deepmd-kit/install
  source:             v2.1.3
  source branch:      master
  source commit:      5a32c49
  source commit at:   2022-07-01 09:52:58 +0800
  build float prec:   double
  build with tf inc:  /u/sigbjobo/software/DEEPMD_FROM_SOURCE/tensorflow/install/include;/u/sigbjobo/software/DEEPMD_FROM_SOURCE/tensorflow/install/include
  build with tf lib:  /u/sigbjobo/software/DEEPMD_FROM_SOURCE/tensorflow/install/lib/libtensorflow_cc.so;/u/sigbjobo/software/DEEPMD_FROM_SOURCE/tensorflow/install/lib/libtensorflow_framework.so
  restoring pair style deepmd from restart
  2268 atoms
Finding 1-2 1-3 1-4 neighbors ...
  special bond factors lj:    0        0        0       
  special bond factors coul:  0        0        0       
     0 = max # of 1-2 neighbors
     0 = max # of 1-3 neighbors
     0 = max # of 1-4 neighbors
     1 = max # of special neighbors
  special bonds CPU = 0.000 seconds
  read_restart CPU = 0.009 seconds
include 	in.setup
variable	out_freq equal 500
variable	out_freq2 equal 1000
variable	out_freq3 equal 5000

timestep        0.0005

neigh_modify    delay 7 every 1

include         in.deepmd
# This is deepMD model

# create groups ###
#group ox type 2
#group hy type 1

mass 2 15.999
mass 1 1.008

pair_style      deepmd ../graph.pb
pair_coeff      * *

bond_style      none
angle_style     none
dihedral_style  none
improper_style  none
neigh_modify exclude none


neighbor        2.0 bin
neigh_modify    every 10 delay 0 check no

thermo          ${out_freq}
thermo          500
thermo_style 	custom step temp pe etotal epair emol press lx ly lz vol pxx pyy pzz pxy pxz pyz
#thermo_modify	flush yes
restart 	${out_freq} restart.lmp.${pid} restart2.lmp.${pid}
restart 	500 restart.lmp.${pid} restart2.lmp.${pid}
restart 	500 restart.lmp.0 restart2.lmp.${pid}
restart 	500 restart.lmp.0 restart2.lmp.0

include		in.dump
dump            myDump all atom ${out_freq3} dump.water.${pid}
dump            myDump all atom 5000 dump.water.${pid}
dump            myDump all atom 5000 dump.water.0
dump            myDump2 all dcd ${out_freq2} dump.dcd.${pid}
dump            myDump2 all dcd 1000 dump.dcd.${pid}
dump            myDump2 all dcd 1000 dump.dcd.0
dump_modify     myDump append yes
dump_modify     myDump2 append yes


timer           timeout 23:50:00 every 1000
New timer settings: style=normal  mode=nosync  timeout=23:50:00

fix             1 all plumed plumedfile plumed.dat outfile plumed.out
fix             3 all nph x ${pressure} ${pressure} ${pressureDamp}
fix             3 all nph x 5066.25 ${pressure} ${pressureDamp}
fix             3 all nph x 5066.25 5066.25 ${pressureDamp}
fix             3 all nph x 5066.25 5066.25 1
Resetting global fix info from restart file:
  fix style: nph, fix ID: 3
fix             4 all temp/csvr ${temperature} ${temperature} ${tempDamp} ${seed}
fix             4 all temp/csvr 255 ${temperature} ${tempDamp} ${seed}
fix             4 all temp/csvr 255 255 ${tempDamp} ${seed}
fix             4 all temp/csvr 255 255 0.1 ${seed}
fix             4 all temp/csvr 255 255 0.1 745823
Resetting global fix info from restart file:
  fix style: temp/csvr, fix ID: 4

run             40000000 upto

CITE-CITE-CITE-CITE-CITE-CITE-CITE-CITE-CITE-CITE-CITE-CITE-CITE

Your simulation uses code contributions which should be cited:

- USER-DEEPMD package:

@article{Wang_ComputPhysCommun_2018_v228_p178,
  author = {Wang, Han and Zhang, Linfeng and Han, Jiequn and E, Weinan},
  doi = {10.1016/j.cpc.2018.03.016},
  url = {https://doi.org/10.1016/j.cpc.2018.03.016},
  year = 2018,
  month = {jul},
  publisher = {Elsevier {BV}},
  volume = 228,
  journal = {Comput. Phys. Commun.},
  title = {{DeePMD-kit: A deep learning package for many-body potential energy representation and molecular dynamics}},
  pages = {178--184}
}

CITE-CITE-CITE-CITE-CITE-CITE-CITE-CITE-CITE-CITE-CITE-CITE-CITE

Generated 0 of 1 mixed pair_coeff terms from geometric mixing rule
All restart file global fix info was re-assigned
Neighbor list info ...
  update every 10 steps, delay 0 steps, check no
  max neighbors/atom: 2000, page size: 100000
  master list distance cutoff = 8
  ghost atom cutoff = 8
  binsize = 4, bins = 12 6 6
  1 neighbor lists, perpetual/occasional/extra = 1 0 0
  (1) pair deepmd, perpetual
      attributes: full, newton on
      pair build: full/bin
      stencil: full/bin/3d
      bin: standard
Per MPI rank memory allocation (min/avg/max) = 6.185 | 6.187 | 6.188 Mbytes
   Step          Temp          PotEng         TotEng         E_pair         E_mol          Press            Lx             Ly             Lz           Volume          Pxx            Pyy            Pzz            Pxy            Pxz            Pyz      
  30011000   261.01984     -351.65486     -275.1675      -351.65486      0              5343.0336      46.370829      20.047001      20.857         19388.585      7940.5549      2120.0433      5968.5027     -952.40999      1178.5871      1869.2429    
  30011500   264.88008     -355.54398     -277.92544     -355.5184       0              4725.3065      46.519613      20.047001      20.857         19450.794      7008.2553      3754.9933      3412.6708     -658.6946       173.26026      1038.2578    
  30012000   254.89314     -354.43652     -279.74448     -354.42761      0              3773.4792      46.676679      20.047001      20.857         19516.467      4536.1045      1853.9433      4930.3897      1174.4184      659.81472     -193.3192     
  30012500   253.50295     -356.03007     -281.74541     -356.0265       0              4624.775       46.462136      20.047001      20.857         19426.762      6761.4292      5517.3727      1595.523      -161.85204     -786.02604     -751.89484    
  30013000   253.55246     -357.10597     -282.8068      -357.09028      0              3159.5187      46.392142      20.047001      20.857         19397.496      5644.5113      629.63377      3204.4109      490.50481     -12.058214      77.627592    
  30013500   247.69289     -353.46206     -280.87993     -353.43527      0              4148.7613      46.626459      20.047001      20.857         19495.469      3956.8893      3770.7958      4718.5987      346.92268      354.89804      1639.1627    
  30014000   253.65702     -354.09465     -279.76484     -354.09736      0              3547.615       46.684949      20.047001      20.857         19519.925      3778.9656      1646.7681      5217.1114      184.49725      2307.6851      718.73051    
  30014500   255.63758     -353.61342     -278.70324     -353.62418      0              4978.1821      46.437813      20.047001      20.857         19416.592      4665.7628      5703.2786      4565.505       208.87299      923.42936     -127.97058    
  30015000   252.86149     -353.67434     -279.57764     -353.67354      0              4190.6687      46.132352      20.047001      20.857         19288.873      4863.9671      2633.4494      5074.5898      2157.0685     -1035.1156      1526.3638    
  30015500   246.90912     -355.17151     -282.81905     -355.16505      0              4302.649       46.385292      20.047001      20.857         19394.632      7229.8414      2897.27        2780.8357     -1172.2964     -1193.1675     -302.90166    
  30016000   250.90422     -352.79779     -279.27464     -352.80336      0              5623.6408      46.603247      20.047001      20.857         19485.763      6013.9264      5076.2648      5780.7311     -216.35057     -1172.1028     -1431.2444    
  30016500   251.07174     -352.41619     -278.84395     -352.41382      0              3365.0016      46.50421       20.047001      20.857         19444.354      5691.5817      1587.3047      2816.1184     -545.42222      232.37909      4231.9875    
  30017000   258.32777     -351.83382     -276.13533     -351.83717      0              6215.2489      46.161588      20.047001      20.857         19301.097      7271.7173      6680.6739      4693.3557      464.71003      204.47296      1134.7227    
  30017500   263.09604     -352.33602     -275.24026     -352.3409       0              3543.1475      46.269989      20.047001      20.857         19346.422      3019.1506      3673.8664      3936.4254     -1084.0521     -885.72813     -315.63268    
  30018000   256.53885     -353.25623     -278.08195     -353.25698      0              4844.7765      46.513397      20.047001      20.857         19448.195      5091.573       6032.1393      3410.6172      201.25706      1406.7341      932.36947    
  30018500   248.57141     -355.22727     -282.38771     -355.23201      0              4023.0723      46.34935       20.047001      20.857         19379.604      6103.2482      2546.7813      3419.1873     -693.88357      79.574969      1628.2471    
  30019000   250.52749     -355.31435     -281.90159     -355.32327      0              3560.6777      46.218715      20.047001      20.857         19324.983      5375.5985      3006.5631      2299.8715     -840.2964       781.82699     -866.36809    
  30019500   256.96164     -356.18975     -280.89158     -356.21029      0              2897.356       46.328368      20.047001      20.857         19370.831      3672.8945      3156.0344      1863.1391     -375.96621      748.86168     -20.990674    
  30020000   245.45162     -355.31835     -283.39299     -355.33122      0              1739.211       46.598411      20.047001      20.857         19483.742      3017.2141      1415.721       784.69784     -546.15359     -1938.0873      351.1433     
  30020500   254.6556      -355.39234     -280.76991     -355.3921       0              3326.7762      46.455602      20.047001      20.857         19424.03       3152.6785      4074.4254      2753.2246     -1304.6959      970.94117      977.0212     
  30021000   249.53643     -354.02692     -280.90457     -354.02438      0              5200.5969      46.280969      20.047001      20.857         19351.013      6560.2592      4862.1295      4179.4021     -458.11359      185.02327     -200.80034    
  30021500   255.95125     -354.35093     -279.34883     -354.34619      0              4425.1258      46.089834      20.047001      20.857         19271.095      4841.3282      3030.8354      5403.2139     -540.21038      1369.8209     -1428.43      
  30022000   254.36715     -355.37924     -280.84133     -355.40009      0              3651.8535      46.022387      20.047001      20.857         19242.894      5589.105       2284.6099      3081.8457     -1652.3693     -1115.5317      484.22809    
  30022500   258.0001      -356.21876     -280.61628     -356.22401      0              4564.1003      46.217282      20.047001      20.857         19324.384      5050.3505      4597.2037      4044.7468     -80.079541     -225.59671      228.7388     
  30023000   250.89718     -355.71121     -282.19012     -355.7337       0              2005.171       46.162443      20.047001      20.857         19301.454      1756.2348      3873.6064      385.67181     -1201.5973      437.74181      1732.156     
  30023500   254.63744     -354.07252     -279.45541     -354.07177      0              6565.0835      45.80952       20.047001      20.857         19153.89       7796.6129      5793.0355      6105.6021     -142.67408     -1502.3127     -108.8388     
  30024000   260.16565     -352.86712     -276.63006     -352.8552       0              5938.3182      45.835634      20.047001      20.857         19164.809      9333.3444      3637.6764      4843.9337     -495.92197     -347.05253     -460.5006     
  30024500   253.5926      -352.8459      -278.53496     -352.84276      0              3752.7954      46.203482      20.047001      20.857         19318.614      4060.4452      5301.222       1896.719       95.657265     -3278.1898      1127.633     
  30025000   259.949       -351.57602     -275.40245     -351.56977      0              4210.7184      46.021263      20.047001      20.857         19242.424      4068.1752      4173.0707      4390.9093     -1055.2441     -1241.7374      543.14515    
  30025500   259.03174     -352.63131     -276.72652     -352.60112      0              7172.453       46.025669      20.047001      20.857         19244.267      8623.2346      7867.4148      5026.7097     -208.57666     -400.39813      1411.3745    
  30026000   255.82907     -354.37332     -279.40702     -354.3727       0              5637.1117      46.240427      20.047001      20.857         19334.061      6632.3061      4130.8662      6148.1628     -123.06075     -317.83026     -943.59194    
  30026500   252.85067     -353.89248     -279.79895     -353.87253      0              4715.6508      46.206029      20.047001      20.857         19319.679      5921.1558      3772.995       4452.8014     -357.04993      214.47368      109.00352    
  30027000   258.57291     -353.14989     -277.37956     -353.13251      0              3692.5338      46.211845      20.047001      20.857         19322.11       2836.0613      4955.6521      3285.888      -1857.8538     -883.53553     -330.31667    
  30027500   255.05068     -353.28687     -278.54867     -353.29641      0              4123.2307      46.423087      20.047001      20.857         19410.435      4088.0124      4751.1582      3530.5217      422.93512     -1986.2138     -750.71922    
  30028000   257.91378     -351.82714     -276.24995     -351.82682      0              4491.2385      46.571728      20.047001      20.857         19472.585      3875.4017      5073.1448      4525.169      -1141.0545     -346.90279     -1184.9682    
  30028500   258.18125     -355.24612     -279.59056     -355.25424      0              4139.509       46.394383      20.047001      20.857         19398.433      4514.5474      3584.7071      4319.2724      425.72238     -137.18587     -449.95051    
  30029000   256.12895     -355.2911      -280.23693     -355.29273      0              4526.4255      46.066453      20.047001      20.857         19261.319      5830.1116      4387.2184      3361.9465      727.96902      171.54319     -76.813128    
  30029500   253.10043     -354.6542      -280.48749     -354.65273      0              3815.8053      46.206688      20.047001      20.857         19319.954      4567.7891      4236.2018      2643.425      -108.37348      659.31437      2213.421     
  30030000   259.28948     -355.37788     -279.39757     -355.39003      0              2862.0752      46.378162      20.047001      20.857         19391.651      4298.5673      1837.0172      2450.6412     -1313.9019      272.69616      1212.3101    
  30030500   249.83115     -355.39582     -282.18711     -355.39638      0              3710.0584      46.189482      20.047001      20.857         19312.76       3357.4243      5420.775       2351.9758     -631.21568      821.84055      157.62437    
  30031000   247.71407     -355.10431     -282.51597     -355.0942       0              3825.7044      46.036759      20.047001      20.857         19248.903      6988.4366      2676.7005      1811.9762      31.31968       661.68578     -1327.5533    
  30031500   259.59916     -354.63277     -278.56171     -354.62633      0              5362.6206      46.161187      20.047001      20.857         19300.929      7211.7513      4479.1393      4396.9712     -1267.9324      550.97155      189.4144     
  30032000   257.10623     -357.77293     -282.43239     -357.75911      0              5057.2039      46.344212      20.047001      20.857         19377.456      4093.0063      4109.8436      6968.7618     -1005.6864     -529.22586     -10.843816    
  30032500   259.30247     -356.70887     -280.72476     -356.69922      0              2600.8273      46.249361      20.047001      20.857         19337.797      2377.2038      2948.3147      2476.9633     -125.45758      1184.5465     -212.38329    
  30033000   252.1382      -354.8545      -280.96975     -354.85151      0              4454.9459      45.744359      20.047001      20.857         19126.645      4636.3653      4160.2012      4568.2712     -683.08737      1071.0365      1513.1639    
  30033500   262.72994     -355.94961     -278.96114     -355.93088      0              3918.7825      45.895167      20.047001      20.857         19189.701      5690.3816      3230.3906      2835.5752     -1161.4909     -41.603951      1165.8315    
  30034000   256.53824     -354.82248     -279.64837     -354.81476      0              5450.3337      46.234522      20.047001      20.857         19331.592      5732.9757      4546.4787      6071.5465     -2369.6918      557.66846     -639.85863    
  30034500   260.05478     -354.88602     -278.68146     -354.87012      0              4470.6186      46.028172      20.047001      20.857         19245.313      5928.6157      3389.9587      4093.2815     -1006.9688      299.99822     -1248.2332    
  30035000   259.81559     -356.3068      -280.17233     -356.2811       0              6301.2096      45.968322      20.047001      20.857         19220.289      7325.7188      5233.7509      6344.159       46.436084     -1221.3482      1454.357     
  30035500   256.05633     -354.41367     -279.38078     -354.4039       0              4977.1569      46.099182      20.047001      20.857         19275.004      5176.9595      5179.7687      4574.7425     -23.441884      1057.6673     -728.83503    
  30036000   258.92574     -356.93475     -281.06103     -356.92718      0              3347.0122      46.167814      20.047001      20.857         19303.7        5918.3723      2183.827       1938.8374     -1484.5926      1142.7112      1123.5796    
  30036500   254.79829     -355.57106     -280.90681     -355.5519       0              7830.9854      46.148443      20.047001      20.857         19295.601      9739.6299      4959.666       8793.6603     -668.02137     -861.6153       780.40313    
  30037000   255.44873     -354.05002     -279.19517     -354.05305      0              4435.2404      46.133272      20.047001      20.857         19289.258      4538.0481      4664.5636      4103.1094     -622.72345      1017.7173      126.76485    
  30037500   255.12119     -354.28664     -279.52777     -354.2819       0              4074.6533      46.089696      20.047001      20.857         19271.038      3396.4821      5020.4286      3807.0493     -222.8529      -1446.8676     -1392.3279    
  30038000   268.071       -354.74542     -276.19184     -354.74691      0              4279.5622      46.1275        20.047001      20.857         19286.844      6258.6054      4148.9032      2431.1781     -932.73122     -403.21543      970.7306     
  30038500   254.91482     -352.41825     -277.71986     -352.41706      0              2175.2843      46.335299      20.047001      20.857         19373.729      3352.5585      909.37389      2263.9203      839.50073     -33.092106      2368.7038    
  30039000   258.84238     -353.48917     -277.63988     -353.47333      0              4590.7842      46.203885      20.047001      20.857         19318.782      7596.0354      3282.4012      2893.9161     -1538.4921     -23.501156      1951.9897    
  30039500   254.81629     -351.86639     -277.19688     -351.86086      0              3884.6267      45.883146      20.047001      20.857         19184.675      3520.0116      5176.4367      2957.4317      319.89125      605.61102     -1100.5043    
  30040000   252.60375     -356.22577     -282.2046      -356.21843      0              3418.2845      45.873302      20.047001      20.857         19180.559      5432.3859      2737.2699      2085.1978     -777.93114      225.01271      382.3866     
  30040500   257.49162     -354.38298     -278.9295      -354.40269      0              2225.5168      46.317373      20.047001      20.857         19366.234      1709.8611      3933.977       1032.7124      968.17537     -895.74203      150.18353    
  30041000   248.54454     -352.07712     -279.24543     -352.0694       0              3091.8232      46.320569      20.047001      20.857         19367.57       5270.0503      1035.5495      2969.8697      1609.003      -60.021221      588.88582    
  30041500   255.11937     -353.34089     -278.58256     -353.3409       0              5216.9877      45.905292      20.047001      20.857         19193.934      8008.7074      4499.8106      3142.445      -1269.7173     -399.02549      2047.6229    
  30042000   249.69819     -355.3747      -282.20495     -355.38403      0              5138.5759      45.907117      20.047001      20.857         19194.698      6493.1259      3437.948       5484.6537      705.09891      2019.976       243.94854    
  30042500   252.42372     -354.54432     -280.5759      -354.54207      0              4540.2162      46.173823      20.047001      20.857         19306.213      2606.3879      6298.8501      4715.4107     -256.81748      946.92191     -668.00566    
  30043000   253.77546     -351.89192     -277.5274      -351.87957      0              3556.4164      46.234291      20.047001      20.857         19331.496      3176.4718      4775.9743      2716.8031      231.02273      730.0942      -1214.9793    
  30043500   259.90521     -355.99029     -279.82956     -355.96665      0              3646.1276      45.817065      20.047001      20.857         19157.045      7370.4223      1458.7634      2109.1971      365.14121     -58.859069      498.0689     
  30044000   254.18669     -353.84747     -279.36244     -353.83381      0              4165.6853      45.642873      20.047001      20.857         19084.212      6650.5907      3248.4424      2598.0228     -434.47461      2371.0703     -516.63425    
  30044500   242.69288     -353.07938     -281.96242     -353.08069      0              4340.5474      45.911952      20.047001      20.857         19196.719      3522.4801      4634.1453      4865.0169     -536.26943      687.96906      940.76247    
  30045000   253.67681     -355.16075     -280.82514     -355.15624      0              3297.9943      46.184643      20.047001      20.857         19310.737      4439.5302      2188.8408      3265.6119     -606.65054     -1146.4324     -410.50247    
  30045500   251.06432     -354.98537     -281.4153      -354.97313      0              4255.6711      45.81576       20.047001      20.857         19156.499      6304.1709      2646.1591      3816.6834     -27.00752      -1192.137      -790.14301    
  30046000   247.88055     -355.27853     -282.64141     -355.28766      0              4959.3417      45.746909      20.047001      20.857         19127.711      7763.3687      4209.1303      2905.526      -152.46785      192.71279      743.23766    
  30046500   255.51988     -355.48338     -280.60769     -355.48044      0              5570.5986      45.847228      20.047001      20.857         19169.657      7331.7863      4439.0656      4940.944      -480.16688     -307.56909     -253.01717    
  30047000   254.01369     -354.73265     -280.29832     -354.70411      0              3649.1264      45.928028      20.047001      20.857         19203.441      5437.4619      4328.4665      1181.4509     -439.88632     -1.0299002      1447.8628    
  30047500   254.81192     -355.40914     -280.7409      -355.39462      0              4169.5296      45.954786      20.047001      20.857         19214.629      2208.6602      6190.2305      4109.698       57.737724      967.70477     -1372.5465    
  30048000   265.43982     -356.21055     -278.428       -356.19947      0              6379.7469      45.921661      20.047001      20.857         19200.779      8252.3102      3917.6826      6969.2479      61.385254     -1353.1735      2086.8548    
  30048500   258.49088     -354.44971     -278.70342     -354.45384      0              2141.4806      45.92579       20.047001      20.857         19202.505      4729.9974      2388.0359     -693.59156     -282.066        573.3926       812.7688     
  30049000   250.5368      -355.50965     -282.09416     -355.50767      0              2806.3895      45.965616      20.047001      20.857         19219.157      3786.3337      3281.5567      1351.2779     -704.41729      518.51564     -1100.464     
  30049500   257.65027     -354.32394     -278.82397     -354.31559      0              6421.3303      45.965682      20.047001      20.857         19219.185      3341.6872      9176.8303      6745.4734      330.56387     -74.69373      -323.26703    
  30050000   254.68544     -352.50697     -277.8758      -352.52384      0              2222.362       46.030371      20.047001      20.857         19246.233      5550.4125      1408.3753     -291.70158     -503.27557      1192.2936      588.80097    
  30050500   250.26835     -352.70223     -279.3654      -352.68861      0              4640.5153      45.909321      20.047001      20.857         19195.619      6881.1104      3011.3179      4029.1176     -212.6672       593.09647      37.766441    
  30051000   252.01439     -352.96785     -279.11938     -352.9603       0              4484.8026      45.69722       20.047001      20.857         19106.936      5505.377       3374.3084      4574.7226     -186.73747      177.24488     -503.14365    
  30051500   256.25067     -354.30645     -279.21661     -354.29506      0              5676.9473      45.83046       20.047001      20.857         19162.646      6296.6918      7117.5935      3616.5567      903.96664      2492.8443     -73.422877    
  30052000   257.29483     -354.12593     -278.73012     -354.1384       0              3658.3454      46.170363      20.047001      20.857         19304.766      2209.9141      3606.2186      5158.9035      722.39813     -283.63513     -1783.7652    
  30052500   256.87973     -352.61735     -277.34318     -352.61765      0              4510.5998      45.994148      20.047001      20.857         19231.087      4254.2677      5787.0588      3490.473       585.4703      -188.85981      710.77557    
  30053000   259.54161     -354.29827     -278.24408     -354.28719      0              7412.0692      45.683222      20.047001      20.857         19101.083      7719.25        7855.5012      6661.4565      734.20795      252.86863     -214.38613    
  30053500   260.50017     -357.50235     -281.16727     -357.49406      0              3645.3117      46.060398      20.047001      20.857         19258.787      3692.7646      3120.0865      4123.0841     -79.959596      549.49993      320.43574    
  30054000   253.93281     -355.25888     -280.84825     -355.2637       0              3893.3623      46.260582      20.047001      20.857         19342.488      2745.3294      4309.5164      4625.2411      640.67583      1379.3522     -163.93455    
  30054500   261.80918     -355.20157     -278.48291     -355.19851      0              6256.4262      45.916274      20.047001      20.857         19198.526      7973.4433      3719.5907      7076.2448      415.4526      -513.0884      -241.7244     
  30055000   251.71793     -353.9709      -280.2093      -353.97274      0              6168.7547      45.86179       20.047001      20.857         19175.745      9351.146       4961.0076      4194.1105     -41.853642     -302.34557     -1523.5492    
  30055500   257.19769     -354.60707     -279.23972     -354.60635      0              4638.1413      46.083194      20.047001      20.857         19268.319      5758.3263      5844.9638      2311.1339     -2383.7225     -502.05228      708.64072    
  30056000   254.94396     -354.39717     -279.69024     -354.39306      0              3464.4703      46.03462       20.047001      20.857         19248.009      3506.1583      3207.3873      3679.8654     -178.56185     -1230.2608     -955.71091    
  30056500   263.12879     -355.71722     -278.61187     -355.70753      0              4827.637       45.790679      20.047001      20.857         19146.013      5624.1431      5236.3539      3622.414      -1001.1739      660.40956     -2387.23      
  30057000   252.43967     -355.49555     -281.52245     -355.46741      0              5568.7311      45.982876      20.047001      20.857         19226.374      8705.7211      6267.4167      1733.0555     -720.69199      72.776561     -103.8694     
  30057500   257.77417     -356.55297     -281.0167      -356.5386       0              4214.6557      46.065212      20.047001      20.857         19260.8        4578.8703      4063.6489      4001.4478      146.53157     -2085.0743      444.63401    
  30058000   253.044       -355.7975      -281.64732     -355.81103      0              5141.0715      46.112256      20.047001      20.857         19280.47       6470.2096      6097.6474      2855.3574     -1075.3226     -1118.6871     -589.07495    
  30058500   258.13188     -355.88041     -280.23931     -355.88205      0              6739.3441      46.035803      20.047001      20.857         19248.504      7939.7186      7218.1448      5060.1689     -899.88604     -311.74286     -1286.9129    
  30059000   250.03341     -353.83149     -280.56351     -353.8256       0              1768.8532      46.082267      20.047001      20.857         19267.931      2980.9847      1468.8622      856.71277     -1371.6804      1150.3385     -701.70183    
  30059500   252.27922     -355.7173      -281.79122     -355.71163      0              3142.8913      46.053093      20.047001      20.857         19255.733      1458.8163      3111.0988      4858.7588      702.6715      -872.14339      651.99082    
  30060000   258.30775     -358.06418     -282.37155     -358.06378      0              4789.9131      46.101196      20.047001      20.857         19275.846      5470.7298      3871.3316      5027.678       371.52538      1299.8196     -1624.0061    
ERROR on proc 0: Cannot open restart file restart.lmp.0: Permission denied (../write_restart.cpp:233)
Last command: run             40000000 upto
