LAMMPS data file via write_data, version 23 Jun 2022, timestep = 187542000

2592 atoms
2 atom types

0 31.128 xlo xhi
0 21.465467 ylo yhi
-0.8433737407650153 32.5484405503004 zlo zhi
-9.18238 0.7870404024992818 -11.212191408862095 xy xz yz

Masses

1 1.008
2 15.999

Atoms # full

862 0 1 0 6.043761046533369 16.188377747576205 -0.05711379906936542 0 1 0
1052 0 2 0 -2.2794375273207717 8.783270527624563 8.217537461486767 2 -3 0
590 0 2 0 7.918001965516667 11.026928462554398 8.078909520835715 2 1 0
777 0 2 0 13.1619192809631 1.2487723526785395 12.87456838989018 2 0 0
1114 0 1 0 -2.3969551593466045 14.385074083043463 3.2616042034697603 -1 -2 0
214 0 1 0 1.1554927445216574 -0.32880780378664753 4.093293990421628 1 0 0
1093 0 1 0 3.3849968194583724 20.091987589960254 1.539864854914478 -2 0 0
1340 0 2 0 -3.9503049170113735 13.844592876367958 8.677508081094759 0 1 0
98 0 2 0 10.792187527200413 1.3760822254749963 1.6874090720189083 -1 0 0
3 0 2 0 11.659453380643777 4.961153721200158 6.300873017368556 2 5 0
1021 0 1 0 -6.682443727453542 15.533136962378777 7.560914537942178 2 1 0
570 0 2 0 1.8070263876006742 8.451685864574067 14.465911302838514 0 1 0
1339 0 1 0 -3.0157934938773514 13.79344208863179 8.44449989716298 0 1 0
1243 0 1 0 -6.0912977835244035 14.548591666444413 14.805757488332791 -1 1 0
278 0 2 0 3.7137968573579205 17.987160561408572 -0.5245437229566814 0 0 0
625 0 1 0 12.182795997992116 -1.7657111841521775 8.019441161386732 3 2 0
900 0 2 0 12.121276755705521 3.7767299346737775 10.798693829116639 0 2 0
924 0 2 0 7.884883321664926 5.656035750287357 14.507453612205465 1 -1 0
626 0 2 0 12.391095373863788 -2.727624428495964 8.130236883548607 3 2 0
165 0 2 0 1.632836220175918 14.53502438030726 15.171879686618345 0 0 0
1629 0 2 0 7.792448678222073 10.615606006744898 5.3866644207995575 0 -2 0
877 0 1 0 5.3312131440662 12.447191848035853 4.382133081409848 2 0 0
741 0 2 0 6.8077393665200425 0.8215555348346535 6.288043966558614 -2 -4 0
536 0 2 0 4.261043577478304 8.227664078271161 14.855483117136579 1 0 0
669 0 2 0 5.901004935023257 15.88542544850462 12.185320062901162 1 0 0
720 0 2 0 -2.9357223638507266 15.304438594226035 -0.46011273961746507 0 -1 0
2581 0 1 0 6.544502721275596 5.249892706483886 10.339483150461318 0 0 0
2445 0 2 0 6.532878820521273 11.155326474158942 0.43081622996494096 0 0 1
576 0 2 0 -2.4366049007693413 14.613487172722454 11.478103258951093 1 1 0
659 0 2 0 9.096527486986728 10.340370038425435 10.430745171395477 -1 -2 0
856 0 1 0 6.497056068863597 17.46834830995649 9.710552927488788 0 -2 0
289 0 1 0 5.462399550288091 17.050426002850966 2.7958282090098363 1 -3 0
463 0 1 0 -2.351321046871335 11.75514960606741 6.718493909118916 -3 -3 0
1248 0 2 0 -6.940244931020166 16.449936515853917 2.873165040020143 -2 -3 0
589 0 1 0 8.252021899919756 11.28367575715874 8.944942620426545 2 1 0
1107 0 2 0 -2.0116652852835006 17.388032649611887 -0.21484735717448533 0 -4 0
338 0 2 0 10.914695847975757 -0.3491213686092314 15.805808321052949 0 0 0
1055 0 2 0 0.35023381048385643 14.154527415767982 0.34421500335938826 1 0 0
121 0 1 0 -4.688220660385684 10.578617079473638 3.4145916517199213 1 0 0
172 0 1 0 6.501245492103028 -0.3164641371913493 1.105883399646749 1 1 0
1124 0 2 0 4.0178791777215 0.5365348892256798 7.8165682118094395 -1 0 0
218 0 2 0 4.186644680629352 8.181717026921918 11.284823106676464 1 -2 0
283 0 1 0 6.852526792762553 2.177292904647643 5.203644531582139 0 2 0
1 0 1 0 12.083445466779386 5.373779874541066 5.546883491364038 2 5 0
330 0 2 0 6.893989752436957 -2.8273309469309225 12.742751880808672 0 1 0
949 0 1 0 5.327758220885095 7.6916487915097385 -0.4291887620126317 0 -3 0
825 0 2 0 7.562338868621619 14.004079050131175 8.279193727105387 0 -2 0
1227 0 2 0 -1.4464940814521325 10.018440613699514 13.073013776493903 0 1 0
903 0 2 0 4.346689963601157 2.0147625134087024 3.0142776961430386 2 3 0
152 0 2 0 -3.720913094276815 16.99543987939278 7.571848263322588 1 -2 0
2343 0 2 0 6.398156996153594 17.959556285444293 5.261595252154133 0 0 0
228 0 2 0 2.7504909004307123 6.140516984005984 4.0770701410409265 3 -1 0
231 0 2 0 3.163098448873738 13.000905997091884 7.76882786774237 3 2 0
2299 0 1 0 6.7260476118477355 19.46633439220695 1.5460599474146255 -1 -1 1
269 0 2 0 5.688164765403191 9.210483001452742 3.646137019677334 1 0 0
542 0 2 0 1.4486161548933143 8.933721769392463 2.4713731013698172 3 1 0
498 0 2 0 -0.8453759450257445 -0.2680064740176915 12.658026975567534 1 -1 0
764 0 2 0 -1.8334160040430307 4.214213641857194 10.509508180368751 -2 -1 0
1051 0 1 0 -2.551388227120159 9.252624972265735 7.425715092218141 2 -3 0
984 0 2 0 -2.5679815358746 8.263079558376113 10.38195065986086 4 3 0
983 0 2 0 -0.9370635066425441 8.185782051189824 10.05052752697999 4 3 0
850 0 1 0 -4.63521687900946 19.251347212236727 0.9130988473803872 2 1 0
823 0 1 0 7.467345193745438 14.726684743715218 7.673050692796618 0 -2 0
1147 0 1 0 3.5062878704922107 -0.49894815441119 15.49789372614814 0 -1 0
90 0 2 0 13.218758944920337 0.17031925108448576 10.59890369638664 -2 -1 1
415 0 1 0 11.223423885923662 1.2456798903989958 0.003746918595388893 2 -1 0
580 0 1 0 -0.7580618711659728 5.421634273187419 13.50172227716828 -1 1 0
703 0 1 0 -3.9634513507025355 12.745182926918716 4.810728313256491 0 -1 0
840 0 2 0 -0.928322218391118 11.892932306036887 9.826093025959139 -1 1 0
146 0 2 0 8.83233850853261 11.23911126244153 0.5694358099735053 -1 -1 0
547 0 1 0 8.303861394652184 4.1059487827806915 6.692151762639954 -3 -1 0
721 0 1 0 7.444231463379881 7.412508691706905 1.2811686725877358 1 2 0
2486 0 2 0 0.8642090833150151 4.26738204069521 9.130314995315597 0 1 0
740 0 2 0 6.498949003829973 0.19536041308699348 7.608397632686582 -2 -4 0
1076 0 2 0 1.908876863150632 10.563753658776825 13.883913334385971 2 1 0
163 0 1 0 1.1780121982413319 15.225291202702543 14.570351470660835 0 0 0
167 0 2 0 14.914093690074177 0.8865140971738665 0.6404750110431663 0 -1 0
948 0 2 0 0.34268125188682136 12.27360706184879 15.300286560058593 2 -2 0
99 0 2 0 9.5907763834597 1.0919291044271435 2.690615681101272 -1 0 0
73 0 1 0 1.4056348392888225 2.899784650303913 3.265640823272986 1 0 0
1030 0 1 0 0.5904733703903671 7.440825392206956 15.146855637888644 1 -2 0
1271 0 2 0 2.455885221246662 6.606064441812997 0.6984756545581192 1 0 0
763 0 1 0 -1.649929655779361 5.162763156286261 10.668328050994173 -2 -1 0
1377 0 2 0 0.42972521799816465 5.2833123202357575 1.1951668476959547 0 0 0
739 0 1 0 7.077316530044138 0.08605264864463136 6.799491101997106 -2 -4 0
1002 0 2 0 7.587122883797094 1.0032687384422427 11.83762532302481 1 0 0
1432 0 1 0 4.298262410395301 13.715374783973857 10.509957296711184 0 -1 0
1075 0 1 0 1.4191771192122364 11.48185744112152 13.963188444634351 2 1 0
751 0 1 0 6.767474222013654 6.36617632834148 6.282603378280911 0 2 0
1054 0 1 0 -0.3441204738055683 14.01446469583323 0.9898818631325217 1 0 0
402 0 2 0 0.06400169222404156 19.444449642633295 2.4744639058399778 -2 -2 0
100 0 1 0 -2.6218448869467124 1.866763738295325 15.439054558653067 3 1 0
12 0 2 0 5.32491691673527 5.758362342333342 8.970841460370112 -2 0 0
901 0 1 0 3.7968148460083033 1.2481783890646412 2.90698845425744 2 2 0
1084 0 1 0 3.1610530356659776 5.284779593445536 15.511520247070377 -2 -2 0
1484 0 2 0 6.780612827573244 13.08620493453195 1.2167326028765335 -1 -1 0
665 0 2 0 0.7516826033233713 15.860227694178775 3.604438077996445 0 -1 0
978 0 2 0 1.8318481500564163 10.468565341123345 7.875811046573375 0 1 0
486 0 2 0 -6.350930060166016 14.042497521710295 8.516945115815986 1 1 0
1001 0 2 0 8.851805836164694 0.17911941378440588 11.432640099524654 1 0 0
433 0 1 0 11.238084555294508 1.7014154654706024 12.26862688272683 -2 -3 0
841 0 1 0 -4.3480156844047135 13.195889875352686 1.2236204054958897 -1 2 0
1043 0 2 0 4.182411594485889 16.584536156033092 8.20479001782016 -1 -1 0
495 0 2 0 -5.8798374671769436 15.051060107722552 10.37320176436608 1 1 0
2449 0 1 0 1.8979270774558288 11.599114182839182 1.9922339983245756 0 1 0
493 0 1 0 -5.694258985048876 15.424490019479272 11.24347631133181 1 1 0
2450 0 2 0 2.1813026884450935 10.747480545309092 2.2838471877785698 0 1 0
327 0 2 0 6.375653652629453 8.474537227055057 10.510133173370091 0 -1 0
1296 0 2 0 0.07167307932047945 18.653671738667505 6.9873848210459055 2 3 0
484 0 1 0 -5.6995583349675965 13.749612696839897 9.166056378423894 1 1 0
752 0 2 0 6.682370425598532 6.906312321235224 5.4813375339122095 0 2 0
1157 0 2 0 6.801454859976302 8.779730643580923 13.907953961851565 2 4 0
376 0 1 0 5.3689369842441295 14.09128294503566 15.10762352698378 0 -1 0
134 0 2 0 -1.92088947592994 7.135251287725174 4.897074676520294 0 0 0
71 0 2 0 9.661698349413722 8.398737401206956 1.6521459881962008 3 0 0
1022 0 2 0 -7.402010892321157 16.008798176987572 7.950571221556656 2 1 0
694 0 1 0 11.437907368238958 -1.5259716294082684 12.829116164380347 -1 0 0
509 0 2 0 -5.479856840615584 18.410143500948944 6.233999204662557 0 -2 0
771 0 2 0 5.431615529587148 1.490747693357548 8.902126445670575 -2 1 0
215 0 2 0 1.6530618438360387 0.5127863277949802 4.247129474498587 1 0 0
375 0 2 0 2.3082967013702453 9.467682911335583 5.920528535893707 2 0 0
277 0 1 0 4.503734778157681 18.459662829985856 -0.2419005031772522 0 0 0
726 0 2 0 4.5819883394641785 6.061611275925273 12.661620050835841 -1 -1 0
508 0 1 0 -6.29122430295072 18.89144444382594 5.996224105983975 0 -2 0
642 0 2 0 9.572815378155347 6.763665560282249 9.42824226157692 0 0 0
253 0 1 0 6.8213889896785265 2.5647182574522036 11.68847849631611 -2 0 0
358 0 1 0 7.042883550196532 13.34892648885742 10.335434559225613 0 0 0
986 0 2 0 3.6783000984698564 14.581598669980643 2.3802177362377166 2 2 0
939 0 2 0 -0.6774774168771581 12.459731533709054 6.301941745432572 3 4 0
1104 0 2 0 2.361404745187964 -2.55110567470184 13.170160755840406 1 1 0
131 0 2 0 7.997828631435599 0.18670860946031276 13.756823084101235 2 2 0
553 0 1 0 1.2246255239614645 4.850929181180861 5.29608247325723 0 -2 0
1100 0 2 0 -1.5839812827404207 3.2608395873595915 7.062220335327372 -1 -1 0
641 0 2 0 8.652868093601366 7.094327311973714 8.38024049804741 0 0 0
977 0 2 0 1.0941736900441201 11.463125511125305 6.969163753381052 0 1 0
1208 0 2 0 3.507724543133361 -3.054565699166329 9.722812338167445 -1 -1 0
496 0 1 0 -1.1953280046538486 0.5616681545619207 12.263591440436208 1 -1 0
967 0 1 0 4.644998054825281 12.261971375613847 6.995260487300033 0 -3 0
1294 0 1 0 9.535956085551325 -1.9435700311416686 7.364477215055615 2 4 0
1485 0 2 0 7.646699356100458 14.121507623308608 0.4421369245212312 -1 -1 0
710 0 2 0 0.6527644688288453 16.044275959070106 9.408724107396667 0 -1 0
236 0 2 0 3.140959164975153 9.591489751214779 10.035782673790893 0 -1 0
104 0 2 0 12.936627557472725 -1.515417609793555 6.491155897609604 0 -1 0
264 0 2 0 1.0623917012580706 -4.4064449568565704 12.308123498823388 1 0 0
116 0 2 0 6.37471670404195 1.2696644399014483 15.061499693074415 1 -1 0
1604 0 2 0 13.181455937144662 2.6922403188974475 4.284687455900063 0 -2 0
1347 0 2 0 9.754688132336593 0.21766598198491582 9.515440348592294 1 1 0
247 0 1 0 0.013420749911559143 5.679977461998745 8.231328838036895 2 3 0
1165 0 1 0 0.07748969607065126 1.1365651031035382 15.00105991941211 1 -2 0
325 0 1 0 7.31488247450641 8.512953855430833 10.82049990506797 0 -1 0
75 0 2 0 1.2876930831523927 3.4979180038635436 2.5111792172615313 1 0 0
541 0 1 0 2.2240989511779965 9.151090742217539 3.011461814355366 3 1 0
723 0 2 0 6.662675982440627 7.561981174228678 0.6730526279694804 1 2 0
2341 0 1 0 5.463166745405328 17.854963802170708 5.447274119925824 0 0 0
704 0 2 0 -4.1456591251655235 11.997517722025863 4.237728018045768 0 -1 0
554 0 2 0 1.5808139346963317 4.619274098865219 6.183098324307873 0 -2 0
2365 0 1 0 9.099756628893969 1.0829670481257998 8.323501900329834 0 2 0
833 0 2 0 1.62666267166577 -0.8378481292152836 2.277017724015998 1 -1 0
421 0 1 0 0.9518632898721 3.2916899586471233 13.356304216876994 3 1 0
587 0 2 0 3.071710016309229 2.509758626102788 10.239963290874593 0 -2 0
470 0 2 0 -7.446731050175881 15.355535624301801 11.725824471592805 2 0 0
34 0 1 0 -2.336398659220532 9.326335631565257 2.7279934666961725 3 0 0
97 0 1 0 10.539322524973437 1.42296791547133 2.648327155884627 -1 0 0
206 0 2 0 4.354340476656894 2.2336769154690126 -0.09369483825848302 -1 -2 0
2386 0 1 0 0.7071983700575637 14.037665658169018 11.818473799726785 1 0 1
435 0 2 0 10.761568556785985 1.9807759853801645 13.067650803934129 -2 -3 0
1102 0 1 0 3.1424734482103815 -1.8912571319735254 13.19378501081859 1 1 0
173 0 2 0 -3.334469099759767 20.419256662676112 1.1763902838734004 1 0 0
2451 0 2 0 2.6552040984988947 12.203729060761574 2.1660252452326563 0 1 1
507 0 2 0 0.9657396830604419 9.755342711728996 -0.013221171744920546 0 2 0
106 0 1 0 12.162453911147274 2.3057383936205897 9.658576309151258 2 3 0
374 0 2 0 2.8229852551008765 8.044178470199927 6.062865137410396 2 0 0
1134 0 2 0 9.114751966010777 2.568873988387505 9.680559886994086 1 1 0
2521 0 1 0 0.6441698401822173 1.1224136054772789 10.189957844513323 1 2 1
384 0 2 0 -3.1759635538185496 6.25377202463198 11.25090230938563 0 -2 0
724 0 1 0 5.152986002793974 5.357262069226705 12.94394333554455 -1 -1 0
695 0 2 0 12.409632314568112 -1.6035618650628325 12.53488571775854 -1 0 0
1226 0 2 0 -0.6975894802994755 9.175507771630052 14.014183292174415 0 1 0
57 0 2 0 9.269542963223612 5.015342710842557 11.41911027235844 0 0 0
1209 0 2 0 4.4992895927498475 -2.4985052809459622 10.791407191025694 -1 -1 0
164 0 2 0 1.8248207064770885 15.86695234935732 14.250372871486018 0 0 0
115 0 1 0 5.5303651950815595 1.5270312456738608 15.432930035402526 1 -1 0
2271 0 2 0 6.898127632215528 -1.332246573365985 5.85774014915521 0 0 1
617 0 2 0 -2.55496243806049 4.693486737201675 5.8837271059122385 1 4 0
1023 0 2 0 -6.8294833469442535 15.514653242125316 6.586786824589518 2 1 0
979 0 1 0 3.7252237599559948 12.835151201354822 12.882843254295228 1 1 0
226 0 1 0 3.4057121095831957 6.405503759481739 3.4362518750842996 3 -1 0
150 0 2 0 11.869572852227272 -3.6014063944110473 13.500566931784478 -1 1 0
95 0 2 0 -4.314089241739797 8.702867487660502 15.209158407043661 2 2 0
1591 0 1 0 6.027228576808833 11.218701640039235 12.254246248291787 1 -1 0
367 0 1 0 2.6503272421114743 18.819892725600067 3.9622390073452793 1 -2 0
136 0 1 0 10.937392039791868 1.9068868022806482 6.551945450508417 -2 0 0
56 0 2 0 8.895190599416186 5.6497591345088845 12.686364297851933 0 0 0
1197 0 2 0 4.013753929215296 2.1463854661017976 14.104490068517023 1 1 0
753 0 2 0 7.574895610207737 5.878747945659283 6.180778847330824 0 2 0
1183 0 1 0 2.084097208396601 5.635969639600424 11.682300675260853 -1 -1 0
1627 0 1 0 7.660046809009315 10.16148451317056 6.254782276582132 0 -2 0
1270 0 1 0 3.1070196879193093 7.234589300257513 1.011066537093678 1 0 0
1434 0 2 0 3.448548516405922 13.876351333471861 10.014249851786737 0 -1 0
1224 0 2 0 -0.5243843124384555 2.416044601519712 3.0123997956263184 -1 -3 0
1216 0 1 0 4.866464644440365 15.44798394096024 7.234640223352173 1 -1 0
242 0 2 0 -3.963742457996203 9.886224442471509 11.605528541999469 1 0 0
1187 0 2 0 0.9172154123488319 7.150416292532112 11.708856867421286 1 -1 0
2522 0 2 0 -0.14408026738871 0.9806776275109454 10.720870884277234 1 2 0
422 0 2 0 0.5613457843245042 2.4478827668315093 13.667752667803624 3 1 0
1225 0 1 0 -1.1505494283172908 9.102599017897386 13.143921250459718 0 1 0
820 0 1 0 8.047429161360004 13.37481772751231 5.180782486955384 -1 -1 0
230 0 2 0 1.9540204747923764 13.907175159250137 7.647465618458879 3 2 0
976 0 1 0 1.7188531858978509 10.722958890092308 6.928404417090139 0 1 0
574 0 1 0 -1.8011477139061802 15.225883930955312 11.044966977031883 1 1 0
766 0 1 0 2.7731483047695447 -0.2781085463265849 10.800205617407515 -1 0 0
1106 0 2 0 -1.6036285259990533 18.557996800143812 0.6301310519872119 0 -4 0
390 0 2 0 6.444714368323141 20.475982972517965 -0.13106839864609432 -1 0 0
765 0 2 0 -0.9603784265772067 5.4332142262053225 10.056723064484869 -2 -1 0
1078 0 1 0 -0.46101100160200603 12.24249867512708 3.6329166030593907 3 0 0
1257 0 2 0 1.640998140963362 0.7709226996467087 7.4511927726462925 -2 0 0
1064 0 2 0 0.24122592643079016 9.80321822582375 5.752640137860879 3 1 0
769 0 1 0 5.308599646289759 0.5522503879334919 8.81761894284267 -2 1 0
883 0 1 0 9.880812209794168 8.469538809090768 -0.06532612097734258 -1 0 0
1244 0 2 0 -5.348563783766351 14.867752428577791 14.288645151311941 -1 1 0
555 0 2 0 1.431167396992932 4.063578360152543 4.819579845829149 0 -2 1
636 0 2 0 8.84019842081495 11.382990048747695 3.81712828017369 0 -4 0
982 0 1 0 -1.833203779328312 7.9531754934855465 9.748643202194586 4 3 0
400 0 1 0 -0.20117770249290431 18.87165099949647 3.2179661750288275 -2 -2 0
1598 0 2 0 11.571542619977347 3.053082608794811 -0.34967826373576427 0 2 0
797 0 2 0 8.96014655299735 2.0312869503558337 14.51721576422891 1 1 0
133 0 1 0 -2.6170690685235907 7.798567131353026 4.932470348743884 0 0 0
798 0 2 0 9.042067832134586 3.4591834892310143 13.960583458446196 1 1 0
1047 0 2 0 7.563798622078425 0.00763257353055552 -0.29017152421595294 0 -1 0
666 0 2 0 0.22763620109471827 17.19445681218302 2.8956565696669645 0 -1 0
603 0 2 0 -2.8417179694048484 6.662013265942239 8.956080270112196 0 -1 0
1042 0 1 0 3.8152100509264177 17.210509533775944 8.907315685731021 -1 -1 0
103 0 1 0 13.542718053089587 -1.1048820924690643 5.845353774278646 0 -1 0
239 0 2 0 5.31948423439217 10.429663455409582 10.67589157680643 -2 -3 0
72 0 2 0 9.311948211706776 9.463122197135677 2.7128765645083073 3 0 0
869 0 2 0 6.958533351522653 -2.966571776722738 9.115536484957143 1 2 0
1263 0 2 0 1.4905901160547919 11.095193890353768 10.050736867564995 2 1 0
382 0 1 0 -3.9943399875888255 6.579349864139897 11.6372904620027 0 -2 0
1375 0 1 0 1.2928292897316838 4.887487012846189 1.140201974896476 0 0 0
168 0 2 0 14.059578116848494 1.986888938012128 1.387770197167916 0 -1 0
2511 0 2 0 10.15480700305934 5.709392607585491 4.668683928664992 -1 -1 0
344 0 2 0 -1.298153266063293 12.441166074055348 1.0660879770157683 2 2 0
1063 0 1 0 -0.25758270065058997 9.563207310785055 4.980868757785957 3 1 0
594 0 2 0 -4.917540143897028 11.036475509882772 14.028349462786194 1 1 0
442 0 1 0 6.219554137204063 3.257534320745005 8.373270702113649 -1 1 0
980 0 2 0 4.267387110164265 12.074799876580812 13.022477050401417 1 1 0
36 0 2 0 -1.9526227374787057 10.06345684813666 2.1996286125234383 3 1 0
687 0 2 0 2.6913923101502544 14.320521866697073 -0.41004010098203636 -2 -5 0
1217 0 2 0 4.407163244517091 14.635452598832075 7.172465148094856 1 -1 0
2510 0 2 0 9.74835833113288 7.004704756987391 4.138781876132277 -1 0 1
79 0 1 0 3.0011859795998994 16.242955285434686 1.6554602806050798 -1 -1 0
1246 0 1 0 -6.4866806628185065 15.739606902205288 2.399251398601503 -2 -3 0
611 0 2 0 13.423510637392218 -4.653636070407208 15.83092150912019 0 1 0
705 0 2 0 -3.3000844167343946 13.225398535416204 4.2617291996164965 0 -1 0
86 0 2 0 -6.143326105915729 14.786129918157071 4.0665348490699005 1 -1 0
1185 0 2 0 1.8002379497011736 4.935913811024939 12.34648887912201 -1 -1 0
991 0 1 0 -2.7593209155937455 14.25522409889819 15.572314423482398 0 -2 0
238 0 1 0 4.781382911164293 9.76813484562364 10.153743074765854 -2 -3 0
359 0 2 0 6.099810899515359 13.53955023273581 10.253487426751953 0 0 0
535 0 1 0 5.144828558853353 8.226394502592667 15.221161588921943 1 0 0
921 0 2 0 -1.9997570761485346 7.403015608402778 0.0729440218683648 0 -2 0
447 0 2 0 8.627412823190843 4.642115874164704 1.7151808874398382 0 -2 0
998 0 2 0 2.507349261229583 7.826923225252183 8.476035505473533 0 1 0
477 0 2 0 5.255878250112319 7.233794119307842 3.725072809302212 1 -2 0
530 0 2 0 11.256343004851841 4.81259524394217 2.844732850710031 0 2 0
981 0 2 0 2.8838113028138403 12.706983602836672 13.375776263715709 1 1 0
919 0 1 0 -2.8153728881010998 7.666094614865135 -0.404778153843451 0 -2 0
1599 0 2 0 11.91308623484102 4.215025214798066 0.5788517992275224 0 2 0
593 0 2 0 -5.411249267925369 10.799056225549666 12.60304266520091 1 1 0
781 0 1 0 5.504373125255795 -1.1225123764889693 10.776112912030325 2 4 0
284 0 2 0 7.332083131591764 2.8707573040937713 5.76912524626368 0 2 0
851 0 2 0 -4.9166027013331055 18.756993784669707 0.14152064061684633 2 1 0
896 0 2 0 8.355271807432196 -4.392786015005205 13.37615020688379 2 1 0
937 0 1 0 0.17126340298239198 12.926343842645236 6.437425906705917 3 4 0
895 0 1 0 8.159207666756707 -4.112017426107563 12.414892889998983 2 1 0
591 0 2 0 7.6254494495343 11.914314391259026 9.32491322939874 2 1 0
35 0 2 0 -2.2377603859610598 8.515801157626717 2.2545371882369376 3 0 0
227 0 2 0 3.0062919530639847 6.94581047503715 2.7379732803631525 3 -1 0
451 0 1 0 -0.5699660181326833 15.125420279214286 8.078703144660512 -1 1 0
770 0 2 0 5.41829188346364 0.20893388479778752 9.730060070353073 -2 1 0
1592 0 2 0 6.687433276513953 10.84234191909049 12.827075936878416 1 -1 0
601 0 1 0 -3.3787256712892146 6.160794461485137 8.315278627686048 0 -1 0
1274 0 2 0 9.350445976325021 -0.40305075872022655 4.751877617586888 2 1 0
371 0 2 0 7.599841132730445 15.020497573642508 2.6238289635871714 -1 -2 0
966 0 2 0 -2.58370905967417 16.423183214965178 9.633898705929482 1 -1 0
135 0 2 0 -2.1942047545633856 8.567790183105217 4.510645982384414 0 0 0
861 0 2 0 5.268339681992517 4.738796767670306 5.7389471731821535 -2 -2 0
728 0 2 0 -6.319624773285143 12.928832595099387 5.865740745263744 -1 -1 0
1000 0 1 0 7.967291141412926 0.10861769421215861 11.943565381652244 1 0 0
2367 0 2 0 8.467491956114223 0.7713706463686965 7.6022768878107705 0 2 0
194 0 2 0 0.4662030585699135 -2.1424985251888806 8.552619164506275 -1 3 0
904 0 1 0 4.2197410556201245 -0.5967883057170538 4.710047008843039 2 1 0
575 0 2 0 -0.9702247715866364 14.812129399658364 11.252929850893704 1 1 0
884 0 2 0 10.657109965966411 7.994035375693909 -0.39009955160671367 -1 0 0
1232 0 2 0 1.627120835462729 17.004507764711263 6.272907391811077 0 0 0
627 0 2 0 11.204066821538833 -1.72746943600999 8.110373780733873 3 2 0
1158 0 2 0 7.579801281361073 8.648230316581508 12.578593359017624 2 4 0
2305 0 1 0 4.842188821113864 3.9700064537760253 2.3707846333149765 0 0 0
569 0 2 0 2.7548620151493757 8.511318838114498 13.289763798132315 0 1 0
446 0 2 0 9.692534682178465 4.982912337746983 0.7311916813336097 0 -2 0
782 0 2 0 5.823447349910666 -1.0087256458260199 11.73569744725707 2 4 0
1200 0 2 0 -4.300307922996559 17.722110041018734 2.017512928096026 -1 -1 0
11 0 2 0 5.641450262558581 6.232411770773837 7.562589141929529 -2 0 0
1077 0 2 0 0.6639886264104069 11.461716188642097 13.322064614494193 2 1 0
885 0 2 0 9.098331581840045 8.003341103840073 -0.4486711386256652 -1 0 0
709 0 1 0 1.4028470675177966 16.161515007945937 9.993690516211945 0 -1 0
2307 0 2 0 4.277156744956128 4.7081304430879545 2.6721302371277167 0 0 1
145 0 1 0 8.92308603877003 10.911976831543994 -0.3255263056089518 -1 -1 0
1101 0 2 0 -0.8616282588923999 1.8732643971300815 7.168143207135591 -1 0 0
205 0 1 0 4.384776627120705 1.3519361157317087 0.31085986852732916 -1 -2 0
1126 0 1 0 -2.722312559579362 16.847785107161233 4.826850686246884 1 -1 0
722 0 2 0 7.750843196433227 6.57911312673617 0.9513837835347001 1 2 0
2443 0 1 0 6.7114250744136665 11.434901035670206 1.3662991425381552 0 0 1
1266 0 2 0 4.36313499975158 3.997129151532463 0.7447087663699319 2 3 0
1264 0 1 0 4.321967554847169 3.9405556804077393 -0.2264499609892614 2 3 0
832 0 1 0 -7.05881979290338 20.59358213776649 1.4599999281155007 1 -2 0
969 0 2 0 4.983234046809626 12.321646313361281 6.061388689937368 0 -3 0
1069 0 1 0 4.909431310293394 9.487476974964096 7.367640797096579 -1 2 0
934 0 1 0 9.328495318934102 8.159787158075906 6.993389085932038 0 -2 0
434 0 2 0 11.12738752535501 0.7542102065000202 12.271683393500307 -2 -3 0
1256 0 2 0 0.5506125658743344 -0.0992810642844768 6.883855918346848 -2 0 0
1207 0 1 0 3.9202603306837642 -3.3047457854010287 10.580992118655729 -1 -1 0
2387 0 2 0 1.1493071653319606 13.303433980525593 11.401871089315495 1 0 1
1086 0 2 0 2.260511455742621 5.470886046873971 15.307369422346207 -2 -2 0
343 0 1 0 -1.9661811500245767 11.745485713266682 0.9396607586931673 2 2 0
345 0 2 0 -2.7960971954196228 12.225555288223855 0.9168911470273389 2 2 0
291 0 2 0 6.154363934012598 16.45345107964905 3.1669013848486163 1 -3 0
1346 0 2 0 10.15351183091452 -1.129744812415018 10.21071684963866 1 1 0
74 0 2 0 2.2601407752310996 2.4776033929248253 3.201883682877286 1 0 0
876 0 2 0 14.440665191757576 0.1561467420356797 3.53524746684099 -1 -1 0
151 0 1 0 -4.3514450739749435 17.074234206144332 6.813712928099059 1 -2 0
718 0 1 0 -2.3656031317474664 15.731249308245996 0.2088412847108123 0 -1 0
923 0 2 0 6.841760940424303 4.8740254459534835 13.59487164106345 1 -1 0
897 0 2 0 -1.302538136960596 16.570908217655273 11.959685542518294 2 0 0
780 0 2 0 -0.22432627503297314 15.892864888765107 15.013495178783078 1 2 0
725 0 2 0 4.585309078976063 4.589229322610769 13.04384321310827 -1 -1 0
1167 0 2 0 -0.8214864732447293 1.437752602739546 15.241919371531187 1 -2 0
445 0 1 0 8.730289631335387 4.7733936647490935 0.7592395026737335 0 -2 0
428 0 2 0 12.63851655519267 1.8344635249082444 15.15344298043123 1 2 0
871 0 1 0 -0.22858770356002373 -1.4411448339232535 13.672934205773702 1 1 0
147 0 2 0 9.552476609255523 10.124967366103741 -0.3216011604368584 -1 -1 0
510 0 2 0 3.2520761887497462 -1.8221409777928859 5.468072001483451 0 -1 0
1433 0 2 0 4.042539194981311 13.437480598498379 11.465481988906095 0 -1 0
1141 0 1 0 -3.6949139930243593 16.13371228105681 13.89817987352058 -2 2 0
2475 0 2 0 15.656513359138717 -5.266370791223804 15.573133044286836 0 -1 0
1483 0 1 0 7.007837088654458 13.991227205410018 1.1881432935835265 -1 -1 0
864 0 2 0 5.578639518820953 16.98588304660787 0.16105977154467888 0 1 0
1044 0 2 0 3.131839724130345 16.651334348066822 9.400281962644389 0 -1 0
1222 0 1 0 -1.3708586769837479 2.7804212490291746 3.280793231424491 -1 -3 0
600 0 2 0 10.355654751078067 2.8722612223938753 3.589637714004515 2 -1 0
153 0 2 0 -5.10537150848626 16.497550478539985 6.990759216669 1 -2 0
870 0 2 0 8.267887837928436 -2.696941056761482 9.960212345803198 1 2 0
370 0 1 0 7.60276488314033 15.39282019650279 3.514945330185774 -1 -2 0
2257 0 1 0 10.022140297682364 -2.9186627958814153 11.016212725087167 0 -3 0
768 0 2 0 2.9021376056836443 -0.8329329622724466 11.620468940611937 -1 0 0
87 0 2 0 -5.067391437053975 14.069999258384158 4.865590787326699 1 -1 0
1341 0 2 0 -2.896037263508713 13.185542205843094 7.713102340376764 0 1 0
494 0 2 0 -5.46013017111985 16.329082920951503 11.062820771174653 1 1 0
329 0 2 0 6.223929151957655 -2.0532805887224708 13.866284458474873 0 1 0
1228 0 1 0 0.952573343267332 -5.319782683658737 15.329934104429684 0 -3 0
1211 0 2 0 7.293577265761624 0.27330085089036515 2.600828078900708 1 1 0
873 0 2 0 -1.0537870972816348 -1.6492830725676044 14.097478554770316 1 1 0
254 0 2 0 7.528502611093143 3.0428541039221964 11.319269188708162 -2 0 0
217 0 1 0 3.8324727834119803 7.615074420287339 11.975867492883859 1 -2 0
711 0 2 0 1.2751686923844614 15.423706764665475 10.55272786853424 0 -1 0
905 0 2 0 5.089733659534663 -0.9573851327392009 4.6590228367321735 2 1 0
1272 0 2 0 2.580231531682233 8.074989650987341 0.9737735210266696 1 0 0
922 0 1 0 7.777123399128429 4.870784537753343 13.90376804083335 1 -1 0
2523 0 2 0 0.4418374188510074 0.7998082518363048 9.302472204933498 1 2 1
237 0 2 0 1.8480667028900268 8.915521512589752 10.629669569219033 0 -1 0
268 0 1 0 5.200001241094855 10.014142365797078 3.26437633565289 1 0 0
2583 0 2 0 6.230696293000142 5.3781445513973996 11.263060649570816 0 0 0
759 0 2 0 -1.564269118962721 12.38854856044043 12.222913555333854 0 -1 0
664 0 1 0 0.3054553707441958 16.220961831926466 2.80256146165911 0 -1 0
1123 0 1 0 3.321102749848582 0.6169073824768696 7.124553740402911 -1 0 0
203 0 2 0 0.21275100924099016 7.991781426511032 4.423544255370804 -2 1 0
124 0 1 0 -1.1493957577217802 6.757319360849503 1.5991621607726088 0 1 0
1142 0 2 0 5.624791905518551 -4.556222295804896 13.441856563811834 -2 3 0
478 0 1 0 2.2051705304815177 -2.0334649819938893 8.695473868193991 0 0 1
667 0 1 0 4.9596891562829635 16.17166280564552 12.083128937719462 1 0 0
907 0 1 0 11.292769709557845 6.560135581649698 9.623329799825223 -2 -3 0
2259 0 2 0 9.401918555820664 -3.4170442253682416 11.662184141263305 0 -3 0
207 0 2 0 3.9235538117210775 0.7787789038230566 -0.36116860643705434 -1 -2 0
1071 0 2 0 4.14422095274916 9.262624441728743 6.81158690511777 -1 2 0
974 0 2 0 2.3541392058016513 14.285934051901952 4.271878106669133 -2 -3 0
1080 0 2 0 -0.9719987344871871 12.839132872771723 3.0847262100745354 3 0 0
757 0 1 0 -1.2189403351173151 12.062239341437515 13.084910376983085 0 -1 0
476 0 2 0 6.696559797682458 7.432722151067656 3.0828881272539133 1 -2 0
335 0 2 0 -7.253959785724362 17.713980849436187 4.75624350141154 0 -3 0
581 0 2 0 -1.035123211637844 5.474227460125454 12.539367743436731 -1 1 0
1143 0 2 0 -3.1784481017313415 15.459841652477149 13.461357308163606 -2 2 0
262 0 1 0 1.1641831924174202 -3.737123111254612 13.004792570644472 1 0 0
506 0 2 0 0.3972931310231995 8.366640214813053 -0.07218539682507708 0 2 0
1210 0 1 0 8.00321551039862 0.7854240247030924 3.022900185829125 1 1 0
285 0 2 0 6.031781851477752 2.667634310607177 5.142412011959162 0 2 0
852 0 2 0 -5.450885714193659 19.721563329258995 1.199683356980949 2 1 0
416 0 2 0 12.195423961450501 1.0443989421737148 0.1804797715684645 2 -1 0
1593 0 2 0 6.323114428252571 11.943590375330938 11.697866105311789 1 -1 0
70 0 1 0 9.870625107949792 8.678913890214654 2.5311359390201824 3 0 0
303 0 2 0 1.643550323572494 20.306790649425206 1.0207198384371634 3 -2 0
834 0 2 0 1.6897751743311415 -0.23966084336087323 0.8532461824493622 1 -1 0
544 0 1 0 -5.652319002715885 14.93761483631751 -0.44758917702111617 0 0 0
783 0 2 0 6.3804876249667055 -1.3614677075008919 10.39313705505481 2 4 0
635 0 2 0 7.704443769059405 10.975969391061728 2.8952597764378663 0 -4 0
10 0 1 0 4.935180487323147 5.840068389405769 8.086873235790822 -2 0 0
301 0 1 0 0.6917369405863294 20.022920471776665 0.9554978453244198 3 -2 0
548 0 2 0 9.214429924665875 4.1565317653635745 6.998693116699033 -3 -1 0