LAMMPS data file via write_data, version 23 Jun 2022, timestep = 100599000

2592 atoms
2 atom types

0 31.128 xlo xhi
0 21.465467 ylo yhi
-0.7807228483237569 32.48578971751759 zlo zhi
-9.18238 0.7840870569212851 -11.170117995838845 xy xz yz

Masses

1 1.008
2 15.999

Atoms # full

732 0 2 0 4.935862080045303 12.70403118917557 9.166544342214918 0 -1 0
2342 0 2 0 7.196998930683809 11.226362636781976 -0.3238313772668814 0 0 0
1259 0 2 0 0.14776535874329866 11.171408292597455 13.275030479544181 1 0 0
1086 0 2 0 12.44543760443491 -0.08797736581482063 14.031447966883746 -1 -2 0
900 0 2 0 2.2377122104474765 18.330972836879454 6.929024786722576 0 0 0
1043 0 2 0 6.350463832681919 0.2979063156923951 15.366151681904883 -1 0 0
1303 0 1 0 5.509028751342412 13.747328251159663 12.709022773618239 0 -1 0
781 0 1 0 8.321447676383016 8.55632663353969 10.406446970721742 2 1 0
470 0 2 0 -7.624050997958822 16.81428892270907 5.029396958641958 2 0 0
518 0 2 0 3.4518360994788053 18.217053120024097 1.7475312320118892 1 -2 0
42 0 2 0 4.2600027508797975 14.482158216434533 5.8773110390633185 0 1 0
1665 0 2 0 3.7779510617332406 9.43627172548129 15.262446741513985 0 0 0
814 0 1 0 0.6605714429598324 -1.2229945763568328 11.32030084666912 1 0 0
1142 0 2 0 6.916344495147157 11.569003255824562 7.968410705029454 -1 1 0
21 0 2 0 -0.13244011263556038 15.95577232464748 15.369231304341328 0 1 0
454 0 1 0 1.312335298093036 15.080574916236666 0.9940914017416538 0 -6 0
2365 0 1 0 3.113086656922507 13.223402273542694 8.540666725693898 0 1 0
1341 0 2 0 4.010753176524874 11.04896616520323 2.2388027257920413 -1 0 0
2511 0 2 0 8.908208197393131 1.0948875161078697 0.5783512935914339 0 0 0
184 0 1 0 2.494618808801945 8.120603372447004 15.26741606406375 0 1 0
932 0 2 0 13.663501388234664 1.9863205377051516 1.3503378373463923 2 -1 0
322 0 1 0 -3.293965170873273 7.520887300209909 12.451141286602814 2 1 0
335 0 2 0 -4.986494749863723 16.97478338916287 7.77294612814182 -1 -1 0
1275 0 2 0 10.328867750018764 10.339710912892269 -0.3536722045523561 1 0 0
444 0 2 0 1.1152094966609885 2.3909700284696216 6.220323643290668 0 0 0
378 0 2 0 -1.076745032747866 4.0339693372405065 6.245469727553056 0 0 0
190 0 1 0 7.466959856227008 -1.7596855768196318 5.32666075184751 1 1 0
329 0 2 0 -2.3597140070450617 8.333745261939939 13.846931257868226 0 1 0
101 0 2 0 -0.9147262459676865 3.8567690739927 14.922237357739247 3 1 0
2509 0 1 0 9.791013111168317 1.0161129002424865 0.14824086363443245 0 0 0
552 0 2 0 6.086973917007224 2.4243601615880745 10.94982440832753 0 -1 0
603 0 2 0 -1.2538285638579567 14.221376231928547 4.658469172174671 1 -1 0
1227 0 2 0 10.922589336636262 0.09469538396466892 1.2024821040395122 -1 -1 0
261 0 2 0 5.601293505928137 0.24186082996552516 6.384268578854269 2 0 0
50 0 2 0 2.0199218070785254 17.338574788986925 3.2537625074584637 1 0 0
1108 0 1 0 -2.035335679650635 0.5525969425579182 15.360970687533824 1 -3 0
1188 0 2 0 -2.0607514310566 17.267055303476777 7.059682680071533 1 -1 0
68 0 2 0 -3.718819267509702 9.612772458325512 6.82687536005257 1 0 0
1260 0 2 0 0.6646732634858035 10.389289389413378 14.501356421329424 1 0 0
596 0 2 0 12.265061613468575 2.8650822876778688 7.172142239972934 0 0 0
670 0 1 0 6.926031224539662 5.5465746550380315 13.7306230848741 1 2 0
415 0 1 0 -4.288352411353417 17.253860544997064 9.495291933823957 1 -1 0
234 0 2 0 -5.039408252288378 15.957151806060626 14.869325000710248 1 0 0
388 0 1 0 8.73519595111567 7.237581846205887 12.958021892822636 -2 -1 0
2366 0 2 0 2.9022546096069206 12.912143976724224 9.41308079609882 0 1 1
305 0 2 0 7.12283595009542 15.9637442632826 10.339340690751177 0 1 0
130 0 1 0 0.35553962482711077 17.127074763156042 4.046586294097194 1 0 0
2450 0 2 0 -3.557825376304339 16.72525457019362 -0.5190742501580023 0 0 0
227 0 2 0 -7.081497244455764 14.754601106748579 9.151113676415598 2 -1 0
576 0 2 0 8.062180121895619 10.548993583813218 3.9712745944304215 0 0 0
100 0 1 0 -0.7207550677543216 3.1401045182254057 15.566146042602563 3 1 0
764 0 2 0 2.593136458335496 1.8951068857970332 15.582964068976851 -2 -1 0
260 0 2 0 5.565515715816483 -0.8556852691531938 5.3244295586946695 2 0 0
908 0 2 0 -4.313513451275107 11.162239393295081 3.2141677176378813 -1 -3 0
933 0 2 0 12.150783704114314 2.489842273959629 1.7643263166260472 2 -1 0
85 0 1 0 8.142174329159161 10.19403970575636 2.1524130808854323 1 0 0
122 0 2 0 -5.852266335366578 18.4578427777737 6.835222237540336 1 0 0
1245 0 2 0 7.292986889350856 9.328663286897623 14.127542874603613 -1 0 0
1218 0 2 0 8.744464636258435 7.159905684755729 9.062138791060594 1 0 1
514 0 1 0 10.070309148532884 -3.9417962851974466 15.378957091809545 -1 3 0
927 0 2 0 2.581784954206524 11.671278641535173 0.350574140219712 -1 -1 0
1190 0 2 0 8.97978089496495 -1.5869248691793674 13.247826172333278 -1 4 0
243 0 2 0 4.773795149136705 2.3536601778446027 4.594119710033803 1 1 0
1253 0 2 0 10.227300421072911 2.1294709359821056 14.258012303789773 -1 -2 0
1224 0 2 0 -2.2390619036650175 5.936965905690164 8.793788373702807 0 -1 0
2510 0 2 0 9.601611102104693 0.5780803845825427 -0.7053992980074999 0 1 1
1279 0 1 0 5.490507955710152 16.031819230995644 2.8142213981063384 -2 0 0
658 0 1 0 2.4771796479229615 11.010703089868164 4.908196813858431 0 -1 0
867 0 2 0 6.461149382981571 16.82503169856486 1.2149289989327416 0 2 0
955 0 1 0 3.4249500195378095 -0.6581327618026319 1.7675083902274684 0 0 0
646 0 1 0 0.7644174778280151 15.415436279819005 8.56843613456492 0 2 0
296 0 2 0 8.937038926668661 4.312740031039408 1.9643574758373146 -1 0 0
299 0 2 0 9.99082019839098 2.35148439874039 7.404055563695113 -1 1 0
898 0 1 0 2.35065397145705 17.948297695695754 7.825962221739539 0 0 0
550 0 1 0 6.0366681984045805 2.3194722359539255 10.026148575325914 0 -1 0
761 0 2 0 14.333644835854894 -1.8098495441740798 11.5822826912518 -3 1 0
97 0 1 0 -2.9255843419090604 14.71276928135787 10.378642898801253 -1 -2 0
40 0 1 0 3.785556511834111 15.08950179733436 5.345702327834763 0 1 0
1083 0 2 0 -8.27254873491987 19.070116014754753 2.8906341702942377 0 -2 0
2331 0 2 0 5.371792746972367 10.320218325441985 9.552807161321917 0 1 0
778 0 1 0 -3.556891859646994 8.82499890154598 1.5355532799062912 1 2 0
1272 0 2 0 9.517784153012263 3.8444343577849542 10.955663570716244 1 0 0
77 0 2 0 1.4960304174255052 4.085827229511419 3.802098419441754 1 0 0
675 0 2 0 7.678311576224659 5.211097306197528 4.85634196109203 0 1 0
148 0 1 0 8.993523546528722 4.965816167664656 5.921484975440499 0 1 0
705 0 2 0 -0.036875533001301655 19.153464692223586 0.7282582382238938 0 -1 0
330 0 2 0 -1.0697179338964784 9.215758309721858 14.0543389647496 0 1 0
994 0 1 0 -0.15989337752689833 7.295517961862449 1.1455721896956608 -1 0 0
484 0 1 0 -2.150600904987341 16.40812306373829 2.8440585776473695 1 0 0
1210 0 1 0 0.6415050260748056 6.3341468500462135 10.221060259701133 1 0 0
1207 0 1 0 7.541876197357552 15.085337969773406 4.792568609381829 -1 -1 0
1556 0 2 0 -4.185343085036826 15.370253362600703 4.188638946447662 0 1 0
592 0 1 0 4.894467879608442 6.292849358652311 15.771938147928248 1 1 0
661 0 1 0 1.552128244589932 5.091517024167699 7.616333108615299 1 3 0
328 0 1 0 -1.7198328213264076 8.65280022224087 14.546452191588067 0 1 0
501 0 2 0 3.0724624784090953 2.3280454037993144 2.9688998177114536 0 1 0
469 0 1 0 -7.010508061195467 16.82577496266319 4.279010046831117 2 0 0
1167 0 2 0 -3.43624192170443 13.378551191294552 9.366850162290566 1 0 0
1267 0 1 0 7.186331228836306 8.6839947139946 7.332319953027845 0 0 0
1231 0 1 0 10.999544614191246 0.4543234075626712 8.282692100644436 0 1 0
78 0 2 0 0.5128334693834513 3.301527651838421 3.0492958471317224 1 0 0
358 0 1 0 -1.2216326789271719 5.5275079009171115 14.097078120077894 1 1 0
623 0 2 0 2.8076078411037284 5.073283636146551 13.543483645190252 2 2 0
1277 0 2 0 7.7107824467813115 5.122968298155373 8.987373360655061 1 0 0
704 0 2 0 0.6517748410954395 19.020074697245263 -0.6154885249896631 0 -1 0
621 0 2 0 -2.435903455382929 6.3244390127722525 15.15728690869652 -1 0 0
1212 0 2 0 1.0159530608994456 5.847175364011736 9.510563240741 1 0 0
87 0 2 0 8.7044619972214 9.532492122119045 1.7015667379718487 1 0 0
614 0 2 0 -1.553470042155546 7.557451137542543 7.205275954545324 2 0 0
1130 0 2 0 10.87351582932822 4.075521471730546 13.042201214598373 0 -1 0
295 0 1 0 8.559008829106064 3.535129412080261 2.3307842625626742 -1 0 0
808 0 1 0 3.6837467193739224 3.5728840333620298 10.175425083222846 -1 0 0
1136 0 2 0 4.474068421289508 13.242447034038726 1.3309636120714092 1 2 0
920 0 2 0 1.6278830191581204 8.702496197940437 8.698134405970633 0 -2 0
14 0 2 0 4.591157626542747 3.2518237304296527 12.995436660733917 1 1 0
881 0 2 0 -1.1863242562864973 15.759440090475241 -0.4263271759071122 1 0 0
762 0 2 0 13.60443344872518 -1.196516787887084 12.827281940347461 -3 1 0
1215 0 2 0 1.3654445943978182 -1.3611820860028083 14.248442786414058 0 -1 0
146 0 2 0 -5.421351600209943 13.614894220618062 2.814215414333645 1 -1 0
531 0 2 0 1.1121380413056376 0.8169136159046149 0.1124158072679119 0 1 0
604 0 1 0 -4.239421984241574 15.010806601572924 -0.3768366563020314 1 1 0
799 0 1 0 0.9286960336627545 9.454614251739594 3.2129389701536737 0 -1 0
1166 0 2 0 -3.8996015639602826 12.908737900288905 7.95079038845282 1 0 0
903 0 2 0 10.401867543515777 6.966873894250565 3.9607187387393115 1 1 0
1340 0 2 0 3.1007284843324014 12.285761018614364 2.617502019481906 -1 0 0
782 0 2 0 9.111853768010938 9.090455728470959 10.213341414838897 2 1 0
435 0 2 0 14.474633605709789 -3.418494067629663 13.224915152925089 -2 -3 0
925 0 1 0 2.1894425835757962 11.543273320240942 -0.5179824132304409 -1 -1 0
1211 0 2 0 0.06134523199541936 7.052896465657536 9.897598457837162 1 0 0
1592 0 2 0 0.817998997060249 13.364341489662223 3.9047159559195572 0 0 0
949 0 1 0 11.253493686903902 5.501876533976353 4.531789015695574 0 -1 0
823 0 1 0 1.6976476162632037 14.936483923302411 12.593910793904572 0 -1 0
899 0 2 0 3.196794235105777 17.482502418451293 7.840584065284206 0 0 0
1208 0 2 0 8.336714429107605 14.547957507781208 4.562843248822765 -1 -1 0
869 0 2 0 2.7051408551030884 5.901640241305302 1.3841226714309518 0 1 0
1135 0 1 0 5.169458033874998 13.843811745198618 0.9565315071038711 1 2 0
230 0 2 0 7.685900771224596 -0.3481653195546198 2.238898412028204 3 4 0
660 0 2 0 2.1554981385113487 10.324374170633874 4.291974096839648 0 -1 0
1103 0 2 0 5.256138216035397 8.225638424699056 13.295529570100951 1 1 0
466 0 1 0 -8.031043902478352 16.504368743587875 11.76799403770354 1 0 0
831 0 2 0 13.69928478963611 -0.1692736049922534 4.643708880948322 0 -1 0
663 0 2 0 1.1381120292766986 4.207538213683987 7.473679429571499 1 3 0
280 0 1 0 4.067091954778124 15.802122286143984 8.666271199406562 0 -1 0
46 0 1 0 4.789693282758397 17.61235016712324 5.636432007233707 0 0 0
2306 0 2 0 -0.5856105916983321 11.28911290133485 -0.07619954239098992 0 0 0
880 0 1 0 -0.9697634289071286 16.12298933528757 0.41639033864225183 1 0 0
2401 0 1 0 -1.2775648162639632 10.718855648420096 4.212558318143046 1 1 0
1281 0 2 0 5.743085804732535 15.568750713811452 3.5891139103162253 -2 0 0
1102 0 1 0 4.8982874794247095 8.2796553059592 12.36729488050188 1 1 0
976 0 1 0 -0.09716642206997786 19.770231548971022 2.9382933343661968 0 0 0
241 0 1 0 5.471967474964794 2.6920051272904946 5.201318527721623 1 1 0
36 0 2 0 6.492865258751652 2.686175632456931 15.334082068234553 2 0 0
1217 0 2 0 9.981036277114637 6.405637917427464 8.51173657434107 1 0 0
979 0 1 0 5.268498102400689 5.727624431248091 11.375367886832414 1 2 0
274 0 1 0 0.2594964433814116 -0.8132338358238531 15.469552241374524 1 1 0
909 0 2 0 -3.5907085220075063 10.478990482787395 2.0270751522131194 -1 -3 0
770 0 2 0 -5.1142450433157025 15.610645159905173 12.243374592775405 0 1 0
1257 0 2 0 11.290650822688471 0.6869646201072408 11.600962201016445 -1 0 0
883 0 1 0 14.033390420123348 -2.5818714050018627 9.91724410013037 -1 1 0
1411 0 1 0 -1.7653717015931467 2.4219978443408525 12.08196302656807 0 -2 0
333 0 2 0 0.7539190449139761 13.832687641359897 15.352058544444285 0 -1 0
1591 0 1 0 -0.055263445862290345 13.034340162258363 3.73781176445895 0 0 0
1101 0 2 0 4.254644404837097 0.7399104264178344 11.478343361515522 0 1 0
134 0 2 0 -3.176496669388594 9.780463961115178 15.182658138198386 0 0 0
865 0 1 0 6.7425632869887036 16.701757050013157 0.3100695763950372 0 2 0
133 0 1 0 -3.9603271514571627 10.35686880062542 15.418228830021716 0 0 0
371 0 2 0 3.2553776520892996 2.1451195167450114 7.259451569251452 0 -1 0
517 0 1 0 3.801006625413751 18.91548015763063 1.1837454496989133 1 -2 0
2330 0 2 0 5.598417907921394 9.458427469678867 10.961673135410674 0 1 0
1226 0 2 0 2.8309420246535533 20.44038146693847 1.4775997461542199 -1 -2 0
106 0 1 0 8.270522441980683 -1.4896274982555207 7.909686967348309 1 1 0
213 0 2 0 -8.053276781160788 18.868629255583073 5.9974924110145515 0 0 0
389 0 2 0 8.499624238634901 7.8678905180204675 12.27192737180296 -2 -1 0
1149 0 2 0 0.7218707431393774 13.474947019105194 12.683047726071049 1 0 0
159 0 2 0 6.899854078323137 13.016064184721978 1.1216509283562255 0 -1 0
1232 0 2 0 10.995818555375491 0.6115048152701608 9.241288658896803 0 1 0
829 0 1 0 14.179719437251533 -0.6888339722346362 5.2814704602239555 0 -1 0
1128 0 2 0 -1.491538220929741 16.051950263396314 11.168582444046129 0 -1 0
977 0 2 0 0.7517381519773515 20.175893862241203 2.8398912310629454 0 0 0
594 0 2 0 5.696656226779219 6.149053051632207 15.262136683035921 1 1 0
304 0 1 0 6.889265110481288 15.482412609269248 9.51094625403335 0 1 0
791 0 2 0 11.46286371505939 2.7728277389636196 9.639909901824014 0 0 0
297 0 2 0 7.620695430835806 3.729692231373987 2.236137403354567 -1 0 0
995 0 2 0 -0.6809865531273163 7.82846706014063 0.505904976049667 -1 0 0
652 0 1 0 1.014283728548644 2.7205874350826864 10.252072968107047 2 2 0
1011 0 2 0 -3.089532583216288 18.754119128842568 0.6276320332257737 2 2 0
112 0 1 0 0.9517209963769715 15.301105895392174 5.948322975760648 -1 -2 0
803 0 2 0 3.371607469229762 8.826911090608629 12.301475469663057 1 0 0
41 0 2 0 4.128353523445463 15.948491896074275 5.575994022901665 0 1 0
1276 0 1 0 6.819858963548306 4.8278976072414075 9.109167525792289 1 0 0
138 0 2 0 8.844926637501743 -2.0264173480804786 10.778816769736244 -1 0 0
574 0 1 0 7.987587479409881 10.91249034305245 4.845992438389452 0 0 0
1137 0 2 0 5.175475954369977 14.62754966577414 1.607055865559564 1 2 0
769 0 1 0 -5.036246246290389 14.63707860017272 12.198055657377196 0 1 0
807 0 2 0 -1.0127920142843436 18.237393747855013 8.645451296380276 0 0 0
1051 0 1 0 6.777089812463865 1.2761403387982573 7.482348966351378 0 -2 0
588 0 2 0 -4.807448159206541 18.010955259528746 4.163486830481093 1 -2 0
1198 0 1 0 -4.790936725549347 9.940234487498676 11.627347473718169 0 1 0
35 0 2 0 8.020875389747731 2.5682010821266585 15.09497419784783 2 -1 0
1134 0 2 0 -0.3864602174492936 -0.8684127767195191 6.719715303541716 1 1 0
479 0 2 0 1.8432320590635045 -4.898163366032338 15.1600799198411 1 0 1
709 0 1 0 1.3288133009045577 7.818764538077116 6.995639305842038 0 -1 0
481 0 1 0 0.5231733580513256 1.4325393198606688 12.626407476947524 -1 1 0
1019 0 2 0 8.29091007082494 10.789124742844097 14.600143088054343 1 0 0
950 0 2 0 10.47923973270804 5.120184790629642 4.992786907641852 0 -1 0
907 0 1 0 -3.5409514381998104 11.219960897417554 2.60911487525504 -1 -3 0
1291 0 1 0 3.3870994428738967 15.320134082199415 -0.6921000770868936 2 0 0
291 0 2 0 9.489261304081353 5.890966731013888 12.300229520433383 0 -2 0
384 0 2 0 6.945638997265475 11.37845701595133 10.832020614523184 0 -2 0
47 0 2 0 5.596090628601154 17.62295836171187 5.036642839761598 0 0 0
703 0 1 0 -0.19142478011036046 18.855448957508212 -0.16280640872088903 0 -1 0
500 0 2 0 3.930994257363412 0.9628504541456189 2.672361883748602 0 1 0
1255 0 1 0 11.758936002026614 0.9389923715129611 10.817020680945463 -1 0 0
455 0 2 0 0.5436767660083331 15.640573700770728 0.6883109285778244 0 -6 0
581 0 2 0 -3.217673169112138 13.152710360061459 5.719583628577564 -1 0 0
841 0 1 0 -3.537818532328793 7.914435877854471 4.271563523988344 0 0 0
483 0 2 0 1.1779025276346529 1.543400623083957 13.354792022923903 -1 0 0
482 0 2 0 0.5314675390967418 0.47308439443781225 12.348037233554477 -1 1 0
725 0 2 0 13.766477858081345 -1.345841385396438 8.59925955343142 0 1 0
1091 0 2 0 8.518496386052165 0.02464426736757286 11.910875544493083 -1 -1 0
839 0 2 0 3.6042078498326484 10.254697255623677 8.203245093105105 -1 0 0
108 0 2 0 8.078512349489495 -1.4096703613037762 6.970564722834151 1 1 0
136 0 1 0 8.195228023556524 -1.7098360882921706 11.484961433369179 -1 0 0
27 0 2 0 10.833681065887095 -1.5853485919947388 5.327824047097113 1 5 0
400 0 1 0 6.121700546861133 -1.7281905152269312 9.56914781439145 0 0 0
349 0 1 0 6.0835829408139555 19.70488540854511 2.5360992155940476 1 0 0
1141 0 1 0 7.711467804256256 11.274051651221995 7.575347852510408 -1 1 0
72 0 2 0 0.031161656781788685 0.046297272204502415 2.061026915172506 3 1 0
990 0 2 0 12.276230295906808 -2.760581232392606 12.665447162631182 -1 -1 0
1126 0 1 0 -0.6063564978738243 16.29107360696516 11.46004447839659 0 -1 0
15 0 2 0 5.626502343797559 2.111230601253398 13.312232851295116 1 1 0
1031 0 2 0 5.853091635799837 10.556813792269889 5.099740988042224 2 -2 0
121 0 1 0 2.954169245426268 -2.0927546557100634 6.801240606047541 1 1 0
259 0 1 0 4.991457535163817 -0.2701752865559883 5.859457058946396 2 0 0
1243 0 1 0 6.564084548292015 8.833122931860785 14.583005174785688 -1 0 0
726 0 2 0 13.71728735884226 -0.8191749089073586 7.012757148297666 0 1 0
989 0 2 0 12.560105135420619 -4.289110406408683 12.142043799163151 -1 -1 0
752 0 2 0 11.502366790909248 0.8408960219340142 4.455799838580475 0 2 0
488 0 2 0 -1.5579645748146498 9.71321308158613 5.79894111155464 -1 -2 0
842 0 2 0 -3.1150110749868776 7.923612319486639 3.430314519458328 0 0 0
974 0 2 0 11.0379511018782 9.196527300307027 3.6339854546891788 -2 -2 0
1165 0 1 0 -3.862822600006829 12.635517660620556 8.887359200513139 1 0 0
575 0 2 0 8.670326243359405 11.564426887707214 4.881218708938843 0 0 0
43 0 1 0 0.5702814927217911 0.414477277327139 3.737167004254636 1 0 0
416 0 2 0 -3.674729002155826 16.501154577559507 9.607473842887526 1 -1 0
1247 0 2 0 2.4350343461167947 14.448703455596002 2.4587479045998157 -1 -2 0
60 0 2 0 -0.4365931886964248 12.370768166864837 9.335119655585896 0 -3 0
86 0 2 0 7.272380424809397 9.848568372667287 2.1154201180116408 1 0 0
1627 0 1 0 -2.7900836956668265 13.782654274482828 1.6684750099282057 0 -2 0
828 0 2 0 -0.05711561444246857 6.484317501723019 4.597309931510592 -2 -1 0
1104 0 2 0 4.896775289173308 7.342124370647449 12.036023088795014 1 1 0
1092 0 2 0 8.65093700085231 1.0547776286469341 13.026520216405306 -1 -1 0
334 0 1 0 -5.088387366869162 16.84586047867657 6.807746117798792 -1 -1 0
1593 0 2 0 -0.0761472322798223 12.851967140332714 2.79387292850023 0 0 0
1628 0 2 0 -3.2427842179701387 14.026763199147002 0.795225446477225 0 -2 0
420 0 2 0 -3.3606633318869843 10.933265450811838 9.220575597858751 0 1 0
978 0 2 0 0.04356791745580259 18.86691156602225 3.1122383908041327 0 0 0
547 0 1 0 5.375216339500104 5.229514431739537 6.843057520095878 -2 1 0
622 0 1 0 3.5691918361132586 4.614983117197458 13.825430389854535 2 2 0
749 0 2 0 0.15369567829614517 11.682845945370858 7.622654135748149 2 0 0
157 0 1 0 7.683353197690269 12.55682580670622 0.7092236711483109 0 -1 0
176 0 2 0 2.865381383591595 11.28057831092962 11.097091004003966 0 0 0
174 0 2 0 5.164526603100568 3.292236261965436 2.6084811704623636 0 0 0
1270 0 1 0 9.435541295206194 3.0399651924319095 10.342124215618188 1 0 0
1213 0 1 0 1.8922802812623203 -1.9489886825365064 13.683984123394783 0 0 0
471 0 2 0 -7.291687382101101 17.555838188681015 3.7065301433581856 2 0 0
1045 0 1 0 -7.128722876038865 15.072898471504935 7.304158288176973 2 0 0
382 0 1 0 7.339856701423285 12.015053454684487 11.474283563799842 0 -2 0
323 0 2 0 -3.961601814963208 8.185807269852349 12.200129398121357 2 1 0
613 0 1 0 -1.1352885505929562 6.763271935401498 7.5066909935202855 2 0 0
968 0 2 0 0.37542701134706413 13.591686844907828 0.9827949470016464 0 -3 0
369 0 2 0 -4.847445695607074 17.18279025155393 11.062720259238308 1 -2 0
931 0 1 0 12.754049606745241 2.1942183897665974 0.9938048813262499 2 -1 0
724 0 1 0 13.533056791313083 -0.6437602665078552 7.964204187398396 0 1 0
73 0 1 0 10.230227304271699 5.184203753837552 1.0350903632538915 1 1 0
969 0 2 0 -1.1778203632476232 13.252098578612365 1.077113379656017 0 -3 0
58 0 1 0 -0.5508435748568523 13.274957851787942 9.74994275335031 0 -3 0
113 0 2 0 0.7571283468434584 15.643564694598982 6.834066217866533 -1 -2 0
215 0 2 0 5.219455892509779 8.89531005372823 1.8137715543000557 -1 -1 0
1209 0 2 0 6.989621078040375 14.514166268654895 5.307877731720201 -1 -1 0
209 0 2 0 0.6270163114548845 -0.17237709393724465 8.736416063609234 1 0 0
630 0 2 0 -0.09632729599779649 8.879992254486869 10.98692036468253 1 2 0
232 0 1 0 -4.059480356632066 15.97239542901378 14.777920664328203 1 0 0
1629 0 2 0 -3.0701825512562726 12.902419277890907 1.905654436956885 0 -2 0
815 0 2 0 1.211835437565062 -1.3868815210720795 10.535210768667737 1 0 0
1191 0 2 0 9.011538525827078 -1.1716686705840074 14.679802293195184 -1 4 0
1076 0 2 0 5.084854527325318 -1.2835410328684493 14.07893992982268 2 2 0
816 0 2 0 -0.1541310736002503 -1.7756066488199966 11.16281916382399 1 0 0
1239 0 2 0 2.554295642869634 -1.3991452040912757 8.307634612636916 2 1 0
624 0 2 0 3.957368142933701 5.104173697169612 14.539534742633883 2 2 0
635 0 2 0 10.562765793379688 -3.096742144581224 9.319785036581475 0 -3 0
499 0 1 0 3.8478107582268932 1.7580100540077268 3.2478905980534813 0 1 0
980 0 2 0 5.923886310999132 5.6698563584263155 10.654389729971552 1 2 0
1026 0 2 0 4.172434097627165 7.677688433788154 4.773993352259149 0 0 0
1052 0 2 0 7.650051380620366 1.7212537849402518 7.560879008801921 0 -2 0
98 0 2 0 -3.322029261479211 14.454930568734124 11.272942639488065 -1 -2 0
730 0 1 0 5.849738735459674 12.902572365119255 8.958970023438535 0 -1 0
1009 0 1 0 -3.4243665199127125 19.419018159732122 1.2766835346901622 2 2 0
1032 0 2 0 5.025000935550764 10.881001078983644 6.503328412159713 2 -2 0
1093 0 1 0 6.400208404268964 18.061433933899853 7.741814676572099 -2 -2 0
1100 0 2 0 4.2602455428555945 -0.7600992644551585 12.03280531697477 0 0 0
564 0 2 0 0.957052983530839 13.468620053261953 6.230176816322486 1 -1 0
858 0 2 0 6.241353487542886 1.590121428780745 0.43372226936040637 0 -2 0
737 0 2 0 2.2943071604901966 6.27886738509201 4.7314382262229575 0 0 0
1238 0 2 0 3.0603378469040723 -0.7894188623846019 9.600867597573952 2 1 0
674 0 2 0 6.426632656257963 4.739331342855613 4.082556601900111 0 1 0
1030 0 1 0 5.288253829637192 11.168761584325779 5.570545421083991 2 -2 0
1199 0 2 0 -4.22556169522819 9.776169619933986 10.82639606033404 0 1 0
450 0 2 0 1.3320279520922267 8.338460730718467 0.6300222671935696 0 -1 0
563 0 2 0 1.3422268904917387 11.999429888758307 5.9677362203611075 1 -1 0
840 0 2 0 4.902242633200438 9.436727535265018 8.018193310382497 -1 0 0
442 0 1 0 0.3746341587146571 2.774526005993353 6.6494891665815015 0 0 0
141 0 2 0 11.641822703066778 3.8727103741132742 15.531610285124058 -1 -1 0
255 0 2 0 9.538395642455107 9.81501913491152 6.29312481896386 -3 -1 0
289 0 1 0 10.01755104123446 5.1034777923056724 11.999008405712086 0 -2 0
1200 0 2 0 -4.3352837572632446 10.660917104778067 12.127681043484824 0 1 0
529 0 1 0 2.0237346148196593 1.0016359499582228 -0.20479334091001433 0 1 0
271 0 1 0 6.672000290443775 7.910531220449089 -0.22327314622122107 -1 0 0
433 0 1 0 14.687398191834065 -4.168151838872829 13.759430354924678 -2 -3 0
1119 0 2 0 -5.296873471751719 12.778860678464703 13.50609986720679 0 0 0
508 0 1 0 13.58395782117098 4.317158938106506 -0.4635329633423847 -1 -2 0
1254 0 2 0 9.829407601350582 0.9939460449224162 15.318612627874002 -1 -2 0
1146 0 2 0 6.108600080925757 4.738331945574864 -0.7755336321881345 1 0 0
233 0 2 0 -3.8961710913372154 15.303084802603417 14.073401803713915 1 0 0
1293 0 2 0 4.05647311357351 14.759602967352542 -0.2811095228411105 2 0 0
682 0 1 0 1.307500904183788 6.25362402376167 13.072469808205058 -2 -2 0
219 0 2 0 4.568523938921605 6.875489839735819 7.11380061931738 1 1 0
951 0 2 0 11.365007565066735 4.851018786771153 3.847772183759215 0 -1 0
942 0 2 0 9.521353601806158 8.116273220487068 15.821408319130112 0 -2 0
2329 0 1 0 6.018226483278127 9.858158969120197 10.173840425251532 0 1 0
868 0 1 0 2.242841715026519 5.132119981404522 0.9983737529711696 0 1 0
290 0 2 0 10.807944723955144 5.516696563020685 11.702703956236517 0 -2 0
833 0 2 0 2.434718967084597 0.1981983537586416 6.797644437794227 0 -1 0
866 0 2 0 7.179828576376574 17.54500590337351 0.032998555916286754 0 2 0
710 0 2 0 1.3531543249023243 8.088365685631906 6.07503083828545 0 -1 0
763 0 1 0 1.9877699002041358 2.363689745152458 15.029179465346656 -2 -1 0
738 0 2 0 1.480189785845432 5.500722296985339 5.878704968711705 0 0 0
164 0 2 0 6.866211326559153 14.033338902336606 14.087039105722534 0 0 0
824 0 2 0 2.448956024937766 15.131261457047469 11.984944244408766 0 -1 0
2163 0 2 0 2.1191339225908803 2.6610815931987215 -0.6614757375180386 0 0 1
372 0 2 0 3.8525738952959068 2.9570742537639223 8.503726401692365 0 -1 0
810 0 2 0 4.351406338216441 2.909550973229816 10.516457350700039 -1 0 0
131 0 2 0 0.49161232847158637 16.372947882137495 4.64223070846827 1 0 0
1099 0 1 0 4.115771686202649 -0.16891247341374038 11.218415514347337 0 0 0
1025 0 2 0 3.815470899235658 7.469210186812767 3.2476604812129786 0 0 0
1186 0 1 0 -2.3368663115810953 16.89333145991296 6.207977076135341 1 -1 0
480 0 2 0 2.0593550402721816 -3.5371051149383463 14.441474065109924 1 1 1
132 0 2 0 -0.5554730891068963 16.955230643371067 3.787652777325583 1 0 0
602 0 2 0 -2.1466053033386565 15.279474084721663 5.450942024208034 1 -1 0
636 0 2 0 10.708489839974025 -3.1186452606015544 10.846006666555256 0 -3 0
51 0 2 0 3.2021023969245475 17.986349959802304 4.084308338702598 1 0 0
1663 0 1 0 4.414752983045957 10.194332012766736 15.272493369806918 0 0 0
177 0 2 0 3.208930682721543 12.555101942497377 11.912734473913714 0 0 0
59 0 2 0 -0.19497749475948978 13.224578436145496 10.698007780781456 0 -3 0
548 0 2 0 5.839966214019282 5.339823508647556 6.011148496208564 -2 1 0
832 0 1 0 2.540357277923926 0.9015775111910336 6.1817150225640916 0 -1 0
771 0 2 0 -5.652380958618982 14.41351260463538 11.472800124896862 0 1 0
1248 0 2 0 3.0883656548298584 14.160694699774336 3.8942345285611673 -1 -2 0
601 0 1 0 -2.11737420170366 14.433273948467605 5.0113358647171 1 -1 0
1003 0 1 0 3.9271621525768157 7.504878973064698 1.278936626157031 0 0 0
1664 0 2 0 5.255935758244815 9.79436918944457 14.971408937225146 0 0 0
1174 0 1 0 6.045158851562715 8.398330332617242 4.8768116098633065 3 -1 0
848 0 2 0 -2.0927936954740005 5.532789287277176 10.725808996855674 0 -2 0
1176 0 2 0 6.431794317594126 8.630498107989421 5.714473940514892 3 -1 0
662 0 2 0 2.4643439432934255 4.924666664060489 7.932011006867418 1 3 0
515 0 2 0 9.870910689637611 -3.2411980656055492 14.735655463714892 -1 3 0
792 0 2 0 11.592846151757106 4.168085191892306 9.06963612117368 0 0 0
242 0 2 0 5.0586310910564904 2.62668733952214 6.07794861084904 1 1 0
1010 0 2 0 -3.4493659198930526 18.860564043611877 2.0273729147870223 2 2 0
158 0 2 0 7.940035237852448 11.86984927796589 1.3299625541167228 0 -1 0
957 0 2 0 -4.844301094781472 20.412068315101326 1.6276056764316196 0 -1 0
448 0 1 0 1.952956392024243 9.100694644275427 0.728054074866618 0 -1 0
49 0 1 0 3.0399375215825137 17.375744028108244 3.340949465052663 1 0 0
509 0 2 0 13.310991870059862 3.477850817080481 -0.10195543739514534 -1 -2 0
191 0 2 0 -2.050365671238014 18.822159807282986 5.244556429255513 1 0 0
1127 0 2 0 -0.3328523523105009 16.99105879333018 10.894335063223712 0 -1 0
870 0 2 0 2.182990359595261 4.402239592453273 1.6892918631521874 0 1 0
282 0 2 0 3.9240402484096393 14.947674815966737 8.303916253007767 0 -1 0
25 0 1 0 1.9599321785474952 18.967105140309236 5.24526482861071 1 4 0
155 0 2 0 -8.393145134409425 17.269849504818023 10.168623452458702 0 0 0
750 0 2 0 0.6163237815239677 10.597768807212207 8.504239805832354 2 0 0
1228 0 1 0 10.195626876536886 0.20092227470379598 5.648886756970111 0 -2 0
736 0 1 0 1.5352263891611218 5.695888246201071 4.9089367033476226 0 0 0
981 0 2 0 4.4511621390508775 5.36216310157479 11.034314799207662 1 2 0
647 0 2 0 0.4265636730389357 14.59424706466695 8.94158960514511 0 2 0
790 0 1 0 11.844206078942522 3.3144949970749704 8.86260884762897 0 0 0
489 0 2 0 -1.2229405169807044 9.783495464262117 7.323689374170742 -1 -2 0
902 0 2 0 9.157944688887234 7.464773640264189 3.1774460825967648 1 0 0
449 0 2 0 1.616580692399897 9.597807371664489 1.4996397483169877 0 -1 0
1075 0 1 0 4.52778328918734 -1.8144077935756653 13.48541037694851 2 2 0
99 0 2 0 -2.106618162068894 14.19315800289495 10.223681978237488 -1 -2 0
229 0 1 0 7.358828987205209 0.2739036635642794 1.552848109251149 3 4 0
1085 0 2 0 11.165055384632934 -0.9012873587189829 13.61379174068523 -1 -2 0
1129 0 1 0 11.422685982753219 3.5141395507256945 13.714997370315052 0 0 0
208 0 1 0 -0.1122706712546866 0.40164861043917455 8.497092895918362 1 0 0
587 0 2 0 -3.3804933897796023 17.642605092261384 3.845618619831754 1 -2 0
654 0 2 0 0.8191504550934574 2.08700665000496 9.553592762473361 2 2 0
149 0 2 0 8.841124919005532 5.711929928680437 6.531027639212917 0 1 0
160 0 1 0 -6.286903256054488 13.666482339113534 15.551068777430755 1 -1 0
751 0 1 0 12.301958982772845 1.113552031886368 4.09048453466368 0 2 0
965 0 2 0 -1.000803702187632 1.7760942369851112 3.7471150743039336 1 0 0
804 0 2 0 2.0019609636416758 9.339681786739346 12.827911547596452 1 0 0
765 0 2 0 2.4552257845568666 3.1600763486381203 14.73865385603215 -2 -1 0
83 0 2 0 -4.74660322749123 7.347355052464319 15.473951284457174 1 0 0
664 0 1 0 5.804085838727566 13.759622311617516 6.398987022491415 -1 -1 0
218 0 2 0 3.1447348068759666 7.411797943256053 7.106587380744988 1 1 0
541 0 1 0 11.796347305937157 6.028692973944176 9.113855246536524 2 2 0
1271 0 2 0 9.013150525098432 2.340376378251232 10.846172619898551 1 0 0