LAMMPS data file via write_data, version 23 Jun 2022, timestep = 171311000

2592 atoms
2 atom types

0 31.128 xlo xhi
0 21.465467 ylo yhi
-0.8481841263926171 32.55325096472161 zlo zhi
-9.18238 0.7872671627352609 -11.215421839166394 xy xz yz

Masses

1 1.008
2 15.999

Atoms # full

872 0 2 0 2.9380848726376745 6.5283494504871795 4.633585327354376 1 1 0
833 0 2 0 4.399997070885034 17.99103001828656 5.905345930015219 1 -1 0
16 0 1 0 3.596382544916508 18.462980010107263 7.880671106044845 2 1 0
1271 0 2 0 2.752768564201982 16.294919209159694 5.820205191543068 1 0 0
173 0 2 0 -0.38282595866208646 17.061271231755985 11.40608935204431 1 0 0
1186 0 1 0 -3.0911985676027496 5.912913023286896 15.613895290546111 1 -1 0
1102 0 1 0 5.260388130857975 14.766529665041938 7.5550006169405 1 1 0
50 0 2 0 3.7555619123453527 5.207557447447067 3.3151596702953743 1 0 0
605 0 2 0 2.3316350279094267 10.333137301375581 -0.18798830565801194 1 1 0
466 0 1 0 4.798504500829666 16.898686117504663 2.4337215045009244 0 0 0
235 0 1 0 3.829003908658842 2.3999727490094953 13.640688768528873 0 0 0
877 0 1 0 1.5478372505596651 -2.150598971238671 13.330975215226172 2 1 0
938 0 2 0 7.737360229237845 11.050041041853792 2.3585751310499194 3 3 0
2520 0 2 0 12.577413855935891 3.7914662810358495 -0.08335020270075 0 0 1
1260 0 2 0 3.117916025969857 2.8502014390407124 7.018122587131777 3 1 0
739 0 1 0 -2.1206040919105535 2.949411045595608 6.9296088559558795 -1 -2 0
592 0 1 0 11.6721042208986 -0.6465529238292396 13.133245240602704 1 2 0
24 0 2 0 -1.0876210870501277 7.142623797950233 10.64404333948676 0 -2 0
669 0 2 0 3.629706505265296 11.447891038549013 13.998005895785363 1 0 0
1217 0 2 0 -1.5523465719461795 18.686825199077713 2.598711775806661 1 -1 0
734 0 2 0 -0.8331811722395557 13.575024867265084 7.08335267744731 0 -4 0
604 0 1 0 2.3236547573536632 11.305006919111005 -0.35953763715811426 1 1 0
290 0 2 0 0.35068242373713976 18.291299500716857 6.231804954842697 0 -4 0
1253 0 2 0 2.844083678284084 13.852182014601555 4.555615035705536 -2 -3 0
997 0 1 0 7.836195290738641 6.039898386842603 9.745090956620544 0 1 0
883 0 1 0 9.68327582174118 8.906940961323563 0.9086499527153631 -1 0 0
1104 0 2 0 4.293760129755323 14.8060475282786 7.511559579562032 1 1 0
588 0 2 0 2.719901765041492 10.332022833512479 3.294525552634118 0 -2 0
637 0 1 0 8.060228672797525 9.632471612698678 14.04767499534618 0 3 0
237 0 2 0 4.472004169415815 1.985160771656366 13.100453619661142 0 0 0
2458 0 1 0 1.7714328700908326 0.9185475311870007 -0.5814727104834545 0 1 1
2581 0 1 0 10.926855887383098 2.3735764850241505 5.824788683042716 0 0 0
463 0 1 0 0.7152792737124403 10.06752880078799 13.418723591666838 -3 -3 0
2330 0 2 0 1.5111390294634623 8.473201993795366 0.8996920996126949 0 1 0
957 0 2 0 -2.7031613184028696 9.3901150988401 15.191871495581506 -1 -1 0
1133 0 2 0 -0.4658956328176386 15.19914190138146 -0.390220369649845 1 1 0
49 0 1 0 4.1698768762368985 4.380699805003731 3.015044575332968 1 0 0
1248 0 2 0 -4.385600998134789 16.342518990007015 10.300338509597559 -2 -3 0
583 0 1 0 7.602084386122317 6.12228281657271 1.2961568351363613 0 1 0
300 0 2 0 8.301331314496997 2.889308103280854 8.51670466897472 0 1 0
267 0 2 0 8.6324972294299 6.9019022519402125 12.248245532953085 0 0 0
388 0 1 0 -2.487725809494986 18.964725606871767 5.483742764235259 -1 0 0
625 0 1 0 3.1292604737544103 7.899654675019823 6.707451393380843 3 1 0
147 0 2 0 10.176114914292024 6.2536157038361395 3.08065656133868 -1 -1 0
850 0 1 0 7.702341842275873 -0.0784323607960693 6.475370487228713 1 1 0
329 0 2 0 6.369590355028963 -0.3119577325342089 15.424672959224782 0 1 0
584 0 2 0 7.525217620887749 6.8787871670994285 0.7090592873962249 0 1 0
31 0 1 0 7.854263371549753 14.280949441693835 9.763962501041384 1 1 0
1075 0 1 0 3.972677888432509 9.981683649237644 15.071527982651013 2 1 0
207 0 2 0 -0.9863084038636483 3.9408257455737923 3.8229371972624486 -1 -2 0
912 0 2 0 3.7338682528083873 -3.011198525131038 8.47516508748784 2 -2 0
1207 0 1 0 4.878910937516009 1.9236549411372543 0.13089893540139597 -1 -1 0
435 0 2 0 9.398488585634173 8.952898233022871 10.00355522402543 -2 -3 0
2460 0 2 0 2.2867357688964893 0.2707165628005848 -0.14484460312002034 0 1 1
778 0 1 0 9.905008507678813 -4.444407805047837 15.315588053179422 1 3 0
765 0 2 0 1.9844739746507383 0.43491317295915977 15.208930282945825 -2 -1 0
1229 0 2 0 1.5974502840263034 -5.140369056705138 15.200049058309276 0 -3 0
808 0 1 0 -2.2015041562479025 1.747596159220464 11.73726547088825 -2 1 0
1191 0 2 0 1.2719565237628376 19.256977510051733 3.745775820828513 -1 3 0
696 0 2 0 7.859416493118573 -1.9386874318386649 10.257422797463674 -1 0 0
177 0 2 0 6.680710011183308 13.252890518968488 4.993864644998612 -1 0 0
779 0 2 0 9.328146914698689 -5.204247017133814 15.16862814865042 1 3 0
444 0 2 0 6.10797128029996 16.363894082156715 0.8608086647793269 -1 1 0
542 0 2 0 10.877431784210252 -2.207117374838307 10.493626543098793 3 2 0
1011 0 2 0 8.280597869568469 12.401512213730225 6.015248174272805 3 2 0
27 0 2 0 10.214323912191084 -0.15375024836139772 7.997143930202164 1 5 0
101 0 2 0 0.07390127573328326 1.9757108117746762 14.90840772343992 3 1 0
818 0 2 0 3.184628677858748 4.314460517770427 -0.04388022520366608 1 3 0
1131 0 2 0 0.7563921845394626 17.241105139184345 0.3280875948411921 0 0 0
732 0 2 0 4.176721502247428 3.0286528623764557 15.477436550502762 0 -1 0
1129 0 1 0 0.8665939717397995 18.16873682499033 0.6658188594713188 0 0 0
165 0 2 0 3.229575952592251 15.353347361055244 15.303738804429578 0 0 0
6 0 2 0 6.922040619857404 17.451185877207635 7.735124817664234 2 0 0
87 0 2 0 -0.667802393291898 19.486336210895338 0.1478241427741096 1 -1 0
678 0 2 0 0.703961355939148 -2.5871100763947554 10.13881934189805 -1 -1 0
1027 0 1 0 -1.1256538130352003 7.746464174510176 -0.8206782259030878 1 1 0
661 0 1 0 -1.7107730465043123 4.363601380673 10.612659078415414 1 4 0
1216 0 1 0 -1.4331057023666955 19.598697394969157 2.776867795645054 1 -1 0
652 0 1 0 -3.3861559410336373 13.209478086272261 9.441942841269691 1 1 0
334 0 1 0 5.77968188135457 1.7528084141747238 11.735630375611686 -1 -2 0
655 0 1 0 -3.134891870994243 7.7178254855705 12.859190390873906 1 0 0
2479 0 1 0 0.2679636078015016 15.201807336234138 7.479357513411539 0 0 1
785 0 2 0 9.333393472219619 7.4626293571647935 15.735739066475865 1 -1 0
907 0 1 0 6.972980951272179 -4.212067727572954 14.094171318971041 -2 -3 0
917 0 2 0 6.632589511734988 1.4224398437031651 0.5269868330770435 1 -1 0
958 0 1 0 3.1013501341954965 13.385363398225348 1.2657012001780426 -1 -1 0
1629 0 2 0 1.1734446075283809 6.950695678777771 8.987634198125233 0 -2 0
978 0 2 0 4.238923525224684 14.877482632022595 10.683946559537555 0 1 0
1168 0 1 0 5.685001982945476 13.390350809768126 13.38777255669642 0 1 0
308 0 2 0 1.4645729784258112 5.340026927413842 0.8323349045702859 -2 -3 0
48 0 2 0 -3.908635243165244 5.74371425931574 12.579752050092342 0 0 0
1239 0 2 0 8.326033383076654 14.774794960508657 0.6069440505927708 1 1 0
969 0 2 0 7.405364163313015 6.221888955275714 8.021803260709447 -1 -4 0
820 0 1 0 4.053872559882802 0.3190020131190492 4.343813633143257 0 0 0
874 0 1 0 -2.123240626730821 16.330807115316347 6.440984980101559 -1 -2 0
987 0 2 0 4.838174257037279 9.934748505299797 4.6080121378341685 2 2 0
2294 0 2 0 8.341005877929287 -1.6018386796134028 15.168598189922363 2 1 1
2378 0 2 0 8.996621113858367 1.9102754783256728 11.147913795731096 -1 0 0
1273 0 1 0 0.7662750439055304 14.456215166546519 2.6845757584425107 1 0 0
1593 0 2 0 1.5165982622527308 -1.0607904668469648 6.436798377643469 1 0 0
944 0 2 0 2.042463208918382 1.72445394795526 2.1476957016513585 0 -2 0
141 0 2 0 12.215363571932958 2.834703726359849 15.65286560142182 -1 -1 0
618 0 2 0 -0.9960549326777868 11.124373060596024 2.1440068173566633 1 3 0
1166 0 2 0 11.5667487232982 2.7350808576617807 3.3355984557782232 0 -2 0
1272 0 2 0 3.1029980648058495 16.978558407749237 7.146687754365263 1 0 0
653 0 2 0 -2.939838174947468 12.526933177407313 8.965880479636626 1 1 0
636 0 2 0 -2.76305748789008 6.276202026906696 9.073910450021533 0 -4 0
126 0 2 0 -2.6419096203463326 13.496829506260225 2.1138024289773862 0 1 0
39 0 2 0 4.420554617726757 20.071364820455187 1.4736419857132388 -1 0 0
2377 0 1 0 9.206136013809854 2.2424216726955333 10.251619737461505 -1 0 0
445 0 1 0 1.2168894038610898 17.488399406942996 9.812900701970365 0 -3 0
787 0 1 0 -1.5934708441906962 14.695328039373383 4.390114906430025 3 0 0
851 0 2 0 7.1501776549887515 -0.9018597802403743 6.483669440095691 1 1 0
192 0 2 0 -0.948484569827226 8.790314240543672 2.7925814059999423 1 1 0
71 0 2 0 1.0549595990436165 8.002841506781882 3.2420025051431054 3 0 0
376 0 1 0 6.675542415424819 14.777231683555783 15.41791159620145 0 -1 0
694 0 1 0 7.907826737135119 -2.0082572258102305 11.218458716966216 -1 0 0
40 0 1 0 2.634029789919547 16.10656817325771 4.028150085878884 0 0 0
83 0 2 0 9.982052723012213 10.578812932447676 -0.019427612910866587 1 0 0
901 0 1 0 5.111812765228706 -1.1316896224738144 2.580129519141113 2 2 0
992 0 2 0 0.11805924278091934 13.932532312591722 15.150002690335656 0 -2 1
770 0 2 0 5.114877518821039 1.9975446285012848 6.672264212301789 -2 2 0
726 0 2 0 6.932052761150023 4.411524221378648 14.294519358033803 -1 -1 0
2415 0 2 0 -1.5748997528365916 7.661342231778876 7.398854500310609 1 0 1
989 0 2 0 5.7070258747257645 6.063165561916449 6.773958759251404 0 -1 0
195 0 2 0 -1.8757318980140847 14.395682484708532 9.777489993148528 -1 3 0
280 0 1 0 0.05384516514691534 1.800350877468468 1.4479048051182044 0 1 0
1592 0 2 0 2.8669092685590405 -1.61219722081833 6.580375480780262 1 0 0
1224 0 2 0 -4.0363738918776475 10.155974871700131 10.188429758993335 -1 -3 0
1187 0 2 0 -3.879351915297147 6.414809966305312 15.32689996236061 1 -1 0
2487 0 2 0 3.251123023334417 0.48654350148030145 9.259004806241308 0 1 1
22 0 1 0 -0.6781392799762618 7.582746598328932 11.33597092771759 0 -2 0
918 0 2 0 8.013348211872815 1.623772709828343 -0.22510539178944755 1 -1 0
687 0 2 0 -1.9227221812064927 16.123192162488074 2.8281903418245444 -2 -5 0
617 0 2 0 -0.9739304947002058 12.60242746525789 1.5820966477028842 1 3 0
131 0 2 0 10.490472056772509 1.700445101571705 14.447388834689225 2 2 0
2331 0 2 0 2.9397611163719763 8.367254156748013 0.38310036525408786 0 1 0
1030 0 1 0 2.5688626425790417 7.6902084526901 14.93031971341233 1 -2 0
1045 0 1 0 7.030821355357312 17.129846366443314 4.24635521699469 0 -2 0
837 0 2 0 -5.286640303250691 20.36647487427508 1.1858234475605416 -1 1 0
878 0 2 0 1.7222928736164165 -3.061174676810859 13.490639475383967 2 1 0
963 0 2 0 15.383124985580663 -1.8357845185284216 5.1981393554734066 2 -1 0
847 0 1 0 10.451046222667834 -0.8720981115007573 2.524942263540966 -1 -3 0
439 0 1 0 -0.1264461834567905 4.874094683131775 6.888695609885837 -1 0 0
1304 0 2 0 4.59875424790425 17.939272033234097 9.539995440233762 0 0 0
509 0 2 0 2.969640399617064 9.709080901301832 11.402487307204934 0 -2 0
1627 0 1 0 1.6172194607340007 7.752808063038984 9.0821629059364 0 -2 0
720 0 2 0 6.028442943452564 2.8542321248192755 4.547782965796551 0 0 0
205 0 1 0 -0.0009300607996297894 4.086534382996491 3.7064859712196787 -1 -2 0
1190 0 2 0 1.5880167649111505 17.7702079526215 3.9843670010062002 -1 3 0
1055 0 2 0 14.2356907390258 -0.13051503549445398 8.258121005034715 0 1 0
1004 0 2 0 -4.41233227203134 18.747098801345324 5.961153757838639 0 -1 0
127 0 1 0 6.695710692013046 8.207573415498617 10.85999943290148 1 0 0
432 0 2 0 7.886942898597585 2.852729150578213 3.067522584977969 0 3 0
704 0 2 0 -5.359200996106998 12.488989118895715 14.63795509599278 0 -1 0
1167 0 2 0 12.587070665137333 1.7545482438674596 4.052202593733709 0 -2 0
468 0 2 0 5.406612533614568 16.9450182967504 3.227581610747831 0 0 0
522 0 2 0 4.637132107823703 10.709599749649744 9.061705627490468 0 2 0
1184 0 2 0 3.1529110218476415 3.2670476556523633 9.45501406538562 -1 -1 0
1086 0 2 0 6.414337076545277 7.869564567247804 15.591999414649397 -2 -2 0
491 0 2 0 -5.644339521240487 15.458409459323683 4.512304440729384 1 -2 0
1051 0 1 0 -3.869027220986818 12.843324557074084 3.39955883175508 1 -3 0
1073 0 2 0 13.263016020421787 0.9053647868211412 10.356457822976243 0 -1 0
307 0 1 0 0.5270765917532163 5.395394430994856 1.1732942673122255 -2 -3 0
1009 0 1 0 9.211076388205045 12.152334545598887 5.910359860181086 3 2 0
1123 0 1 0 0.6867733015094826 5.130439499133674 9.3744944481347 -2 -1 0
1052 0 2 0 -4.0090345394875495 12.862089219516232 4.4072991950330485 1 -3 0
884 0 2 0 8.966587274212612 9.048372330913445 1.577143647527799 -1 0 0
923 0 2 0 6.107669065466179 4.799454104435459 12.260758450440097 1 -1 0
312 0 2 0 4.044050713945587 6.725887482450051 0.28452479059382463 1 0 0
1257 0 2 0 -5.726774324740916 14.438658911413517 1.4066785630995446 -2 0 0
1141 0 1 0 11.238094903298439 3.994070971357889 9.590484549961673 -2 2 0
657 0 2 0 -2.5494796751254016 7.759647437432391 12.108847595858538 1 0 0
1054 0 1 0 14.363916325849084 -0.5601747779265764 7.397903129643376 0 1 0
337 0 1 0 13.392232096546397 0.21218132805235435 15.269481998724213 0 0 0
724 0 1 0 6.570282118470392 5.287855279201323 14.032776565407543 -1 -1 0
695 0 2 0 7.031822549677296 -2.1543214874305603 11.65126329950049 -1 0 0
446 0 2 0 0.8656923760866166 17.717249330952992 8.920580675072266 0 -3 0
121 0 1 0 -2.743098699835301 6.543154525863346 1.372815355036388 1 -1 0
5 0 2 0 6.054461084989768 16.394637852361328 7.180898160551616 2 0 0
164 0 2 0 3.639194757254715 16.268603206336618 14.131252562997604 0 0 0
1071 0 2 0 1.5509864075462916 11.845802784007315 4.265938392005361 -1 1 0
1238 0 2 0 8.958659528317979 13.404288634364939 0.9745362746422279 1 1 0
533 0 2 0 -5.694024354764805 16.879970950523106 1.259462516676296 0 -1 0
1072 0 1 0 13.054324358095847 0.3158597348882197 9.624866582534429 0 -1 0
441 0 2 0 -0.8463601403119093 4.308477158360303 6.5705470690479935 -1 0 0
408 0 2 0 -4.808320806725328 12.476248383578042 0.25156196345441595 2 0 0
1275 0 2 0 0.011274308226846733 14.483436164784866 3.2488451895257286 1 0 0
622 0 1 0 9.535522336371372 0.7356789119004246 4.46956205227319 3 3 0
841 0 1 0 8.575410570269622 4.071334375621273 5.908296882211058 -1 2 0
68 0 2 0 11.968769276183936 4.034362730088294 5.2939601283019995 0 -1 0
590 0 2 0 8.749239049554086 0.48031751264870426 13.183067230400212 1 0 0
524 0 2 0 3.646430966774032 16.169190511447916 -0.4738309154016788 0 1 0
489 0 2 0 -4.950540191023167 11.903444659137321 12.533154425833056 0 -2 0
546 0 2 0 -4.657797742649879 15.52104021018228 -0.34167697769277816 0 0 0
1183 0 1 0 2.642680647556131 3.4138564733138432 10.258940986695833 -1 -1 0
102 0 2 0 -1.4443811406462832 1.7654757899784457 14.869862519618652 3 1 0
635 0 2 0 -3.0074243486762873 7.8301836144793935 9.167064630224157 0 -4 0
1103 0 2 0 5.59988464490334 14.058683499938931 6.984654469992115 1 1 0
646 0 1 0 -4.323455199795566 9.68882674562781 6.517696198519423 -1 1 0
640 0 1 0 11.100726358881714 4.749116375716649 12.298118165686676 0 0 0
176 0 2 0 6.1545680746032705 11.907120789240434 5.623795232060725 -1 0 0
146 0 2 0 11.442161199469417 7.0132825718700005 2.903102197727561 -1 -1 0
703 0 1 0 -4.603767390303757 12.09443666613253 14.146387473065309 0 -1 0
61 0 1 0 -5.219919645807371 17.832363193694995 2.6899136461161883 0 -2 0
998 0 2 0 7.332817623416519 6.730414288512678 10.159356698542423 0 1 0
843 0 2 0 8.269032695805606 3.933656978610312 5.010124716633643 -1 2 0
86 0 2 0 -1.3716115607081663 20.790253316791983 0.05167396948409664 1 -1 0
471 0 2 0 -5.056169862311971 16.056925610973675 8.248205826627974 2 0 0
232 0 1 0 -0.7171474072040964 10.169009938084622 10.159365590384567 2 0 0
676 0 1 0 1.480584279005204 -2.846923447103613 10.654776612414498 -1 -1 0
536 0 2 0 7.370835490438715 11.713278803960549 11.254239778099311 1 0 0
639 0 2 0 8.186927856799432 10.319692292315839 13.3558733749888 0 3 0
821 0 2 0 3.247145659206982 0.012504883903460717 4.818622941060957 0 0 0
1246 0 1 0 -4.318265537090811 16.342464865791985 11.262015080154594 -2 -3 0
1070 0 2 0 0.6392989237159439 11.552812551051488 3.1034391833465866 -1 1 0
885 0 2 0 10.470466142965433 8.70254662207431 1.4638957143250693 -1 0 0
470 0 2 0 -3.90914754316497 15.026866446114795 8.394472248879527 2 0 0
1434 0 2 0 2.4070253996893354 5.215522785132795 12.939365626059997 0 0 0
1170 0 2 0 5.600430854443726 13.904752258938085 12.565450576413506 0 1 0
955 0 1 0 -3.6537737539654094 9.638467085947179 15.293178268411928 -1 -1 0
988 0 1 0 4.738298563565611 5.8724456727188645 6.490633521159546 0 -1 0
611 0 2 0 14.555953606516852 -3.9160979668602574 15.48211570628304 0 1 0
1031 0 2 0 3.2742802806601405 7.093466224854968 15.197616527728531 1 -2 0
23 0 2 0 -0.40293156768442945 8.475326421676623 10.983283533834193 0 -2 0
1053 0 2 0 -4.726972742179221 13.125502939430046 3.016695291710977 1 -3 0
1198 0 1 0 2.0597572934648256 4.948077133844409 5.186508304780027 -1 0 0
430 0 1 0 8.59651254416977 2.3789780245098173 2.6584606837895346 0 3 0
1146 0 2 0 -0.5002273103937149 8.991950856096985 14.023261250823861 1 0 0
852 0 2 0 8.23393581688231 -0.0384006557902854 7.322051393955409 1 1 0
98 0 2 0 8.092170712339097 10.822727210505962 8.854433646861843 -1 -1 0
562 0 1 0 1.0799381492831992 8.664979566897225 5.124044148125735 0 -3 0
1084 0 1 0 6.014760170306702 8.34337511997751 14.823830547450697 -2 -2 0
908 0 2 0 6.314725649436244 -3.662911030061288 13.734272669143994 -2 -3 0
72 0 2 0 0.6643628175063967 6.918934124735555 2.137689354942107 3 0 0
871 0 1 0 3.529417810675231 6.940748025127482 3.935499909810984 1 1 0
103 0 1 0 10.99221190396097 -0.05854453869517259 -0.03592338529732397 0 -1 0
903 0 2 0 -3.0504028046920624 20.30007811815542 2.586119392282672 2 2 0
309 0 2 0 -0.09329267683787737 4.789008992376447 0.6929843286921054 -2 -3 0
389 0 2 0 -2.263942995195701 19.021796253708537 4.5005151892317405 -1 0 0
520 0 1 0 4.798793535968493 11.624982923093095 8.991520986711656 0 2 0
32 0 2 0 7.644732480561507 13.377020277104455 9.417023284119947 1 1 0
981 0 2 0 4.992262849830422 13.664161793382679 1.8530188874636249 1 1 0
1261 0 1 0 6.162789243150605 0.7319248741373521 9.193932236346827 2 1 0
552 0 2 0 -7.309274478084501 15.50349587866192 8.037424285404963 0 -2 0
398 0 2 0 13.712690318354463 0.1656035443183801 4.335914190339202 -2 2 0
1005 0 2 0 -5.290160617530744 17.589361071346346 6.213118277246125 0 -1 0
686 0 2 0 -3.4305055417982513 16.56595627597831 3.0146425964186867 -2 -5 0
752 0 2 0 0.3198167615989431 13.156761674500736 12.012436317153439 0 2 0
431 0 2 0 8.175191358860555 1.949513087528242 1.8912390299269775 0 3 0
291 0 2 0 8.635357166274153 -2.486769029829068 7.305083661750745 0 -3 0
758 0 2 0 9.135788217923183 9.470018376579585 7.517051694545435 0 -1 0
63 0 2 0 -5.076082512785009 17.369156083248946 3.540067779014972 0 -2 0
1042 0 1 0 2.92327405839875 11.808989569498156 7.234608016885659 -1 0 0
798 0 2 0 11.192443192391172 3.5666583745420635 13.30470008901123 1 1 0
1185 0 2 0 3.0826667560642376 4.0355516982497885 10.882873201386449 -1 -1 0
543 0 2 0 10.275256447861903 -0.9823941922783743 10.029220965519908 3 2 0
451 0 1 0 4.694217276133993 6.955615780887448 12.49143323073264 -1 1 0
916 0 1 0 7.590047623282766 1.2033589267693952 0.5144307357334452 1 -1 0
535 0 1 0 7.521331840442976 11.923556640127195 12.186426235951231 1 0 0
1303 0 1 0 14.38486251573009 -3.550383727654327 10.325311859179015 0 1 0
125 0 2 0 -2.6338097906515685 14.200596083805808 0.6747245547460226 0 1 0
2222 0 2 0 11.807202222742434 -0.2898930861842419 5.901514386499339 2 2 0
118 0 1 0 -3.0469689460836484 6.62801514546332 4.221261989123195 -1 2 0
1044 0 2 0 3.061399933561332 12.120369624491586 6.280230136442004 0 0 0
1222 0 1 0 -3.5740661341417876 10.00347948249134 9.324383449462822 -1 -3 0
1245 0 2 0 1.568640917215896 7.138199013671147 13.535460183439275 -1 1 0
492 0 2 0 -4.540509311946336 15.463795916214522 5.516577270906204 1 -2 0
869 0 2 0 2.071909966667793 14.301792683858556 9.626648167807664 1 1 0
589 0 1 0 8.276523127566378 0.5366140614565289 12.342965250812842 1 0 0
330 0 2 0 5.321969177160449 -0.042039715305946856 14.300285019247747 0 1 0
299 0 2 0 7.720792672329746 3.122385197508523 7.152184212486791 0 1 0
41 0 2 0 1.9219559607295729 15.721709467956641 3.4784898317320154 0 0 0
764 0 2 0 2.361825720438453 1.4915631155069065 14.131280874913859 -2 -1 0
819 0 2 0 3.7167220813600754 4.988937500849829 1.1950930162031153 1 3 0
1280 0 2 0 1.702760280909736 12.530929007317495 8.28367078721498 0 0 0
1199 0 2 0 1.2594764664652187 4.7232589883697145 4.71261040635316 -1 0 0
911 0 2 0 4.0425215045026865 -1.8523864215022803 9.166295373088026 2 -2 0
532 0 1 0 -5.834029473958865 16.125878059968247 0.6600415493790694 0 -1 0
977 0 2 0 5.818688300163561 14.84044352317759 10.573450276544277 0 1 0
596 0 2 0 -0.881312369392563 -1.3507097698070516 11.906305531684678 2 -1 0
390 0 2 0 -2.188080004373431 18.094265272827784 5.785607125894477 -1 0 0
1279 0 1 0 1.2234152592478498 12.573165971681687 9.169799693278526 -1 0 0
310 0 1 0 4.412320432077194 7.499314822883623 0.7413373794895357 1 0 0
1263 0 2 0 5.279556639225525 0.7795156129118563 8.839316399374976 2 1 0
1032 0 2 0 2.880618416006521 8.588489339250856 14.986374928089987 1 -2 0
518 0 2 0 6.716177718466706 -1.0933395496464389 8.713238636525686 1 -1 0
990 0 2 0 4.766864907239229 5.864938634445689 5.514977669546601 0 -1 0
1061 0 2 0 5.088076554624294 8.358308599005857 9.449425243120464 0 -1 0
383 0 2 0 -1.1425050225533042 4.022541402932566 13.676956530961114 0 -2 0
564 0 2 0 1.1690477406830235 9.587607021070143 4.862460296173007 0 -3 0
2379 0 2 0 9.89601615559161 2.896251407201609 10.23404347791121 -1 0 1
762 0 2 0 -5.712111433106072 15.176345940081848 11.40248290118611 -3 1 0
705 0 2 0 -4.323225222128831 11.257726269743225 14.507333133830826 0 -1 0
585 0 2 0 8.462595664699027 5.653050819615038 1.1387954272798442 0 1 0
1021 0 1 0 -8.677140728800193 20.359216388150497 1.7037336060588837 2 1 0
96 0 2 0 -5.233715049606145 15.791469751602623 14.799517392265633 2 2 0
761 0 2 0 -5.821400075961327 13.692375411465713 11.829814587899216 -3 1 0
834 0 2 0 3.6870165963576236 18.838727028413313 4.7754247591295185 1 -1 0
382 0 1 0 -1.4572574345143763 4.869956470745531 13.358986999872297 0 -2 0
2221 0 1 0 11.402067335784277 -0.6986273530388858 6.678699801260635 2 2 0
760 0 1 0 -6.309264223774103 14.525028476992626 11.730157928397109 -3 1 0
862 0 1 0 -2.5027955434522573 13.551021110348211 13.222655052191504 0 1 0
1091 0 2 0 5.136558503296008 -3.4422820859939556 11.764314179155722 -1 -1 0
1208 0 2 0 5.104961064348279 2.8274232213837074 0.30766969538297895 -1 -1 0
1599 0 2 0 7.331410529185155 8.74169802046479 3.3507269278778207 0 1 0
530 0 2 0 10.731670175026297 6.786478542834125 8.055967319626376 0 1 0
119 0 2 0 -2.450438834860974 7.085703411777432 4.884262522183375 -1 2 0
1179 0 2 0 6.505855123741316 4.8080597269836955 0.576097890485266 2 -1 0
586 0 1 0 3.4092584691783054 9.635968751984155 3.1810867449329088 0 -2 0
797 0 2 0 12.229771914412504 2.5199287671156325 13.399260420204028 1 1 0
116 0 2 0 8.077069136835684 2.1617742255718984 15.010354061931096 1 -1 0
791 0 2 0 -6.860662743515092 18.191354345700965 3.0701315083328407 0 -1 0
1189 0 1 0 1.4901062709756117 18.59650138198149 4.415289825306715 -1 3 0
1069 0 1 0 1.07920879997457 11.138987178134634 3.8738313857803357 -1 1 0
1376 0 2 0 9.51120275775108 3.882718296927763 1.9465035998584916 0 0 0
684 0 2 0 7.543427594322827 11.011916811077606 -0.11764009916556928 -2 -2 0
2480 0 2 0 0.011026528195180268 15.08848153999001 8.394860466375881 0 0 0
1345 0 1 0 1.3528457286608018 1.937580281101884 7.043610608511858 1 1 0
206 0 2 0 0.11619097716224469 4.521310852263944 2.8816341410617303 -1 -2 0
773 0 2 0 -4.527013970354342 13.09037240362873 6.63845425817332 3 5 0
460 0 1 0 7.6766087757105534 9.021528700837948 6.383180951482602 1 1 0
1347 0 2 0 1.1520733231391769 1.4598472543006817 7.8982755097851065 1 1 0
910 0 1 0 3.9756445405994434 -2.822255093156919 9.401521034625361 2 -2 0
1060 0 1 0 4.813153553199342 8.97630530930757 8.751214868353577 0 -1 0
1155 0 2 0 12.802626297545523 1.5647296269940951 8.409602713360002 0 -3 0
421 0 1 0 6.330084921465174 7.081420476827926 3.7107397598404477 3 1 0
328 0 1 0 5.63856982957749 0.24862900842631142 15.128626039167518 0 1 0
174 0 2 0 -1.2786541504410671 16.867615921212895 12.84098009481808 1 0 0
222 0 2 0 10.289403707722053 6.749097167653474 5.365943833842334 1 0 0
95 0 2 0 -4.36332124626456 14.969267573318898 13.747220449057929 2 2 0
265 0 1 0 8.872925750020588 6.262557026149995 12.984738922337948 0 0 0
386 0 2 0 -0.688743805155095 10.827724027644704 -0.062218651009972925 2 1 0
733 0 1 0 -1.4630113416003119 12.917616066090849 7.2886370300605705 0 -4 0
906 0 2 0 3.1328460706053565 12.0854700928918 11.958908987428877 2 0 0
725 0 2 0 7.385617752162371 5.824998620052564 13.685422544239568 -1 -1 0
898 0 1 0 4.349826705975985 6.415442234898643 9.657898625397557 0 1 0
285 0 2 0 -8.200407361226508 16.82339553613868 10.976635307948586 0 1 0
774 0 2 0 -3.016667178056229 13.347728897593308 6.592462205620412 3 5 0
493 0 1 0 1.2499293539437144 14.62465824726512 12.385735273145219 1 1 0
2495 0 2 0 13.693602120746661 1.3775906389012953 -0.3495516260168045 0 1 1
925 0 1 0 14.678172108272204 -0.6105557652288721 2.8259392083909227 -1 -1 0
377 0 2 0 6.36837946086593 14.225652774479403 14.601714463086216 0 -1 0
836 0 2 0 -5.573477721075416 19.680554589780282 -0.2017496956274608 -1 1 0
104 0 2 0 11.88436703121202 0.16905870491608224 -0.2805877572496642 0 -1 0
433 0 1 0 9.478111535899032 8.94039141483331 10.931625910493928 -2 -3 0
97 0 1 0 7.523526491829908 11.406483126476646 9.393047852136473 -1 -1 0
769 0 1 0 5.643739811603099 1.6283790045812712 5.960345822533959 -2 2 0
17 0 2 0 12.197950153275062 -2.2825024630321873 8.08290020074044 2 2 0
128 0 2 0 7.271359661020662 8.90337428116392 11.097312699675143 1 0 0
130 0 1 0 9.768745992287725 1.112359328193893 14.846632638928824 2 2 0
870 0 2 0 2.0263538473400544 15.072825111803791 10.93207967819521 1 1 0
920 0 2 0 0.7062322509894691 1.4668510613932453 5.08938411758729 0 -2 0
2257 0 1 0 9.439928094817876 -2.3019424920414155 13.444180546693048 0 -3 0
648 0 2 0 -3.9946924179872454 9.977898645698817 7.400266667802775 -1 1 0
289 0 1 0 0.26054936960959796 18.443877524499058 7.174616210081165 0 -4 0
449 0 2 0 1.2851448850610818 10.58991417726529 7.519075575730714 1 -1 0
641 0 2 0 10.25943837171428 5.28701361430813 12.335531555249458 0 0 0
115 0 1 0 7.273470060445017 2.6836939073508486 15.176054873300398 1 -1 0
129 0 2 0 6.197159273445388 8.007732056192214 11.650376372929314 1 0 0
909 0 2 0 6.468714869977118 -5.025415474503931 14.33819537721017 -2 -3 0
991 0 1 0 -0.6643560552885711 14.449098358701907 14.876381386911335 0 -2 0
873 0 2 0 3.2814833010431976 7.8758878129283865 3.7509789095580732 1 1 0
945 0 2 0 3.2149142323403828 1.2840691780137294 3.017617027375457 0 -2 0
1085 0 2 0 6.784610375847104 8.981612532324931 14.495815387090605 -2 -2 0
1144 0 1 0 -1.2174745643323048 8.632525679035687 14.536125881974636 1 0 0
1432 0 1 0 3.155144385517549 4.870637571625611 12.450976088056548 0 0 0
904 0 1 0 3.1691591101831365 11.64656463849309 11.096410795024994 2 0 0
647 0 2 0 -4.275363702893752 8.71268382180423 6.531058071046038 -1 1 0
689 0 2 0 6.929300297121686 8.880710787805297 -0.6956472067318723 -4 -1 0
423 0 2 0 5.364547999491129 7.129433667695708 3.4506384196689774 3 1 0
677 0 2 0 2.2688635141352416 -2.9145225930965237 10.07339219513104 -1 -1 0
616 0 1 0 -0.5016645975792712 11.753527956703786 1.5832849097084565 1 3 0
2481 0 2 0 1.1553274848025101 15.48358875110187 7.333534297221565 0 0 1
2413 0 1 0 -1.2485047164071135 7.512174567148156 6.468654323291637 1 0 0
2486 0 2 0 2.988135427470722 0.19013458470981082 7.75783771606271 0 1 0
51 0 2 0 3.4576391142974514 3.7112058906269905 3.076473072349571 1 0 0
587 0 2 0 3.7957547726594965 9.547735608377454 2.274509342637393 0 -2 0
591 0 2 0 8.152034575556817 -0.3562890137887691 11.92810080649505 1 0 0
1605 0 2 0 0.5466979118900521 0.29542187657990215 12.815990984909794 0 -2 0
735 0 2 0 -1.3174140146595412 12.154159291069258 6.702762354535913 0 -4 0
2259 0 2 0 9.161126988616125 -2.4280733740109794 12.525036613467668 0 -3 0
627 0 2 0 2.6050203759965855 7.790323489990993 7.515074868312311 3 1 0
757 0 1 0 9.612683963966683 10.002225170847108 8.10609725918423 0 -1 0
92 0 2 0 -4.46320779290832 8.557286062021156 12.2180368343022 2 2 0
521 0 2 0 4.542115788383367 12.002696944027218 9.837465643702807 0 2 0
487 0 1 0 -5.173498008155494 11.837269905195363 11.584034816418693 0 -2 0
817 0 1 0 3.163949679279794 5.1378831765926245 0.40826475212603563 1 3 0
33 0 2 0 8.0032183750674 14.74091718900699 8.909353140536538 1 1 0
959 0 2 0 2.40875474833174 13.5366998862058 1.8658512023883538 -1 -1 0
788 0 2 0 -2.3584042554837317 14.254485114243556 4.001205088637422 3 0 0
495 0 2 0 1.7484244235179158 14.825605224313248 13.172598637455561 1 1 0
899 0 2 0 4.8962063902600335 5.645837883816356 9.978280448400819 0 1 0
1377 0 2 0 10.664694418921542 4.569546163753194 1.0897413149717285 0 0 0
549 0 2 0 9.48484471804567 6.1970197936925295 -0.6775569995784028 -3 -1 0
1244 0 2 0 0.5844505626420595 6.854040097077583 12.431265743473762 -1 1 0
638 0 2 0 8.330665425553136 9.995270818196344 14.902619407746313 0 3 0
1010 0 2 0 9.379059373286788 11.571672323863298 6.69163238207948 3 2 0
70 0 1 0 0.676893296924784 7.875977389377303 2.3630245258132496 3 0 0
980 0 2 0 6.282009881657308 13.904768298412957 2.7367595633000468 1 1 0
406 0 1 0 -4.932976164387145 12.290224187564956 -0.706834044225058 2 0 0
551 0 2 0 -7.662876608042029 16.825938474286733 7.224986444089703 0 -2 0
1213 0 1 0 -1.6993321894615363 10.530805885299582 5.548603007469279 -1 -4 0
194 0 2 0 -0.8630559197139362 15.182624865409322 10.563215173142146 -1 3 0
1254 0 2 0 3.7415144868505563 12.81548008188388 3.980058459115485 -2 -3 0
1092 0 2 0 4.866803814351593 -2.053903853194513 12.506056186784402 -1 -1 0
1247 0 2 0 -3.5306186622889024 15.861272024532235 11.492476663211932 -2 -3 0
1209 0 2 0 4.2370830201508305 1.6814457816268562 0.8264771506259974 -1 -1 0