LAMMPS data file via write_data, version 23 Jun 2022, timestep = 195682000

2592 atoms
2 atom types

0 31.128 xlo xhi
0 21.465467 ylo yhi
-0.8682946163387655 32.573361425879064 zlo zhi
-9.18238 0.7882151656178125 -11.228927104901711 xy xz yz

Masses

1 1.008
2 15.999

Atoms # full

862 0 1 0 2.947254659304595 18.309876901993405 0.7873703317434797 0 1 0
836 0 2 0 2.674666781192717 5.409367636799544 1.2134709615183543 0 2 0
82 0 1 0 8.480816206306276 2.0350595735325214 2.6697568232071047 0 1 0
1165 0 1 0 -0.6945333220168788 0.4728781376108149 14.853382323209853 1 -2 0
726 0 2 0 4.069680503136562 10.989655442024535 10.828194391002702 -1 -1 0
632 0 2 0 8.164696456023469 13.35363647917075 4.379086918390927 -2 -1 0
1117 0 1 0 -1.437435536019047 17.653596749006276 1.861327981966828 0 1 0
1286 0 2 0 8.833612181496518 0.6236033497731528 7.282747410217052 0 -2 0
386 0 2 0 -2.5607451946407207 8.549245590844999 -0.6260075401217334 2 1 0
1258 0 1 0 9.333643390138075 4.300278307952667 12.85278623353261 3 0 0
204 0 2 0 -3.945303196862941 10.889542589486114 4.714026077854349 -2 1 0
1026 0 2 0 -6.956794456260809 18.461442176723242 1.0065492209287354 1 -1 0
1257 0 2 0 0.059216159435964505 -0.32230829520684323 5.261931742381225 -2 0 0
667 0 1 0 3.1171718738852685 11.965141726282235 9.36548203885782 1 0 0
1162 0 1 0 -0.34516126322179685 -0.019735371608829766 11.477020076938562 1 1 0
939 0 2 0 5.794478025147496 13.085554254466048 4.395015062590572 3 4 0
1627 0 1 0 9.767316461720695 -2.757835547362868 8.722920013972802 0 -2 0
61 0 1 0 3.7496218852237972 14.661428092437893 6.720289540894002 0 -1 0
1021 0 1 0 5.651457034298411 -2.07890449959979 15.506064735715015 2 2 0
1163 0 2 0 -0.42393647508734983 -0.6855085324090666 12.159674700572522 1 1 0
759 0 2 0 -5.925396703412274 10.555369813495103 14.4456513010836 0 -1 0
1212 0 2 0 14.566600477503203 -0.6029313896739104 8.350544289603024 1 2 0
70 0 1 0 13.647154796212142 -2.207702214573211 15.581308546848767 3 1 0
131 0 2 0 9.664442682286923 5.166225168894539 15.455907251073743 2 2 0
596 0 2 0 -2.379578539599907 7.9360435118611035 14.294366816724871 2 -2 0
145 0 1 0 8.600806425448333 10.403545963139578 -0.4746089605375584 -1 -1 0
884 0 2 0 5.700936439796345 4.7301362070403 1.8272855018718444 -1 0 0
364 0 1 0 2.619006978037632 4.422608557366342 3.9867794791945785 1 3 0
1226 0 2 0 4.44239699436086 -4.305613854493753 12.828305514754623 0 2 0
1521 0 2 0 -5.704799823232235 15.97229729716642 14.397092483638177 0 0 0
806 0 2 0 8.097343295885016 -1.764132309319969 4.459323467101371 0 2 0
2343 0 2 0 2.7078020064524218 7.372584478911991 4.125827002275943 0 0 0
463 0 1 0 10.127824235589204 -0.12801869307925196 2.806314864289662 -3 -2 0
442 0 1 0 -3.4011379937283674 15.921286569644968 13.079978598690342 -1 0 0
932 0 2 0 10.869117042431013 -1.98275950552781 7.839869182218569 2 2 0
84 0 2 0 9.0182420845983 1.2228265893941852 2.490108054424733 0 1 0
203 0 2 0 -2.9043881036526655 10.682761766514556 3.6745968742289215 -2 1 0
1293 0 2 0 6.116251256415745 0.8178205408170243 7.829858365756662 3 1 0
2341 0 1 0 2.689024406523563 7.741225791641083 3.2476657702032714 0 0 0
705 0 2 0 -2.5536119001402353 12.45506010635308 9.04378205412422 0 -1 0
1520 0 2 0 -6.738815950160276 15.293096683977733 15.156044939543062 0 0 0
520 0 1 0 0.9627551317136278 10.31037260508994 -0.8106217009530103 0 2 0
1092 0 2 0 11.005965676189739 5.655024064964434 4.613508153436944 -1 0 0
2293 0 1 0 7.735247659995914 0.25295667316329684 14.730747125762203 2 1 0
551 0 2 0 -2.4247718478084024 15.914400403386464 6.903263676218023 0 -2 0
340 0 1 0 -1.2679261824037293 3.886460487438329 5.441897338844241 0 -3 0
528 0 2 0 -8.061330653534855 17.223940139978936 6.900293627881901 2 1 0
2445 0 2 0 1.4979496286084981 7.351818671217824 0.548505459708676 0 0 1
120 0 2 0 -5.906565886469288 12.489384358839793 5.802118503034071 -1 2 0
778 0 1 0 1.3817345722166978 17.555997763268792 5.396025386810697 1 2 0
737 0 2 0 6.86003964456633 11.573934901302302 12.375333135810006 -1 1 0
115 0 1 0 5.448015076544342 1.7799460929610307 14.90593368287208 1 -1 0
231 0 2 0 -3.8319007279453223 20.057561690467903 1.2600097151885423 3 2 0
16 0 1 0 0.6481992522291985 16.06456329243376 7.729743393585057 2 0 0
1377 0 2 0 0.4212365469143866 4.022940279992586 1.0697365762355915 0 0 0
1219 0 1 0 8.929444656604968 3.097437158201263 5.2193957053094255 -2 -1 0
1047 0 2 0 7.250259295532844 -0.3053053105144059 0.12328647709147855 0 -1 0
193 0 1 0 1.0058745498494808 0.09370123249146545 8.2388171900296 -1 2 0
1085 0 2 0 3.517573716853112 4.994854682852057 14.789948099732625 -2 -2 0
576 0 2 0 15.154479026219144 -2.7014531988941863 10.318262871553658 1 2 0
944 0 2 0 -5.403583847414402 14.938857107976851 1.7491734088828248 -1 -3 0
359 0 2 0 11.153170942799791 3.7739335411770707 11.10579497748043 0 0 0
358 0 1 0 11.709943953858385 3.104685422472631 11.53964409350412 0 0 0
900 0 2 0 3.2921549454624843 4.702721704350052 9.199376215514485 0 2 0
1053 0 2 0 2.4253727537447864 3.2509273461560646 11.04586156082434 2 -2 0
703 0 1 0 -3.356887392468059 12.955606457126162 9.215650578897224 0 -1 0
642 0 2 0 11.401131570700981 1.0543411019093925 10.331153873338291 0 -1 0
72 0 2 0 12.860631026004794 -1.7249527729879528 15.249768579360797 3 1 0
1305 0 2 0 5.148088622050317 19.92171651687878 2.3054972818372375 0 -1 0
2553 0 2 0 8.042221465946579 -2.8815079972525117 13.297743583261061 1 2 1
758 0 2 0 -6.868087152786757 11.80294254547516 14.576892781799396 0 -1 0
451 0 1 0 7.684625798240897 9.135120528526224 5.772799956778967 -1 1 0
27 0 2 0 4.342178290744914 -0.42503582937719964 8.676917601211374 2 6 0
1255 0 1 0 0.8520673973142822 -0.7616908359312968 5.564615519351523 -2 0 0
1132 0 1 0 1.0788777344582263 14.433385015414837 3.075239177318898 1 0 0
1077 0 2 0 14.509236010081382 -2.756432276119246 12.464039030096195 2 2 0
317 0 2 0 10.546369631896846 7.37623432964765 8.880833414188698 0 0 0
2511 0 2 0 5.447031693636058 -1.281478670883296 12.457098154882948 -1 -1 0
977 0 2 0 4.305871203932786 14.850770049395942 2.21496314090072 0 1 0
549 0 2 0 12.083232051505323 4.108879457463431 8.479215832400246 -3 -1 0
190 0 1 0 5.2533471349304275 1.8305507926832743 11.544694385570867 1 2 0
1271 0 2 0 2.773633567846402 12.011801449760428 1.3845626661992076 1 0 0
1412 0 2 0 -5.081623240309574 12.720937736940861 0.7115825954783388 0 -1 0
117 0 2 0 6.138092553514629 1.0882669095248065 15.059880730510427 1 -1 0
161 0 2 0 6.2552460804221175 12.220843806233045 7.189898333235046 1 -1 0
2365 0 1 0 5.119969959357258 13.086499273949563 8.22316998868553 0 1 0
747 0 2 0 7.106516278195287 6.441333011926728 2.5199606164543447 -1 -1 0
267 0 2 0 6.446956099661783 13.790846952437633 11.210493001380875 1 1 0
62 0 2 0 4.155904772915819 14.352212868926769 5.891887039062563 0 -1 0
842 0 2 0 -2.4182584274564967 15.757379693838004 -0.41403246906729896 -1 2 0
60 0 2 0 -1.5046222904729998 15.558434287994206 4.104532409665202 0 -1 0
2187 0 2 0 -8.095626564891345 20.438191869790828 -0.058099947834829746 0 -1 0
1071 0 2 0 8.13015133206231 9.566306143041095 3.932505157600146 -1 1 0
875 0 2 0 13.044846772405505 0.6010076399465181 3.8539697708773266 -1 -1 0
982 0 1 0 -1.0378175823447884 12.42179112046842 3.733523637998063 4 3 0
266 0 2 0 7.372176748827476 12.525862471200528 10.762357103147064 1 1 0
498 0 2 0 5.8284171866443515 -0.22071926203428527 5.930695443310752 1 -1 0
741 0 2 0 3.874934688718702 -2.1889020744136047 15.442357395949767 -2 -4 0
465 0 2 0 9.815025794730095 -0.9840120191849323 2.479684793350137 -3 -2 0
983 0 2 0 -1.9372155353490226 12.861086021082748 3.65584297353489 4 3 0
585 0 2 0 3.887882079239941 6.630726177432777 5.965445643371177 0 3 0
829 0 1 0 0.502615658434632 14.183539693627432 11.783190813077844 0 -2 0
1051 0 1 0 2.9179033943831154 3.3671531057191686 11.923939591544967 2 -2 0
339 0 2 0 11.275682119632997 -0.31224168057281965 14.17486969311948 0 0 0
1234 0 1 0 4.532533624843614 -1.6226245392714618 4.208385763627808 0 2 0
724 0 1 0 4.490411489007773 10.188786003707909 11.173959312533565 -1 -1 0
897 0 2 0 8.010295414231962 14.529442281994104 8.016889899953613 2 0 0
148 0 1 0 7.977898124473987 6.976518833719422 7.373530156719546 -1 0 0
1296 0 2 0 6.984065736359244 12.235332692655177 0.55531404395389 2 3 0
598 0 1 0 3.438049077990517 17.095140037444423 9.539340598385378 3 -1 0
1413 0 2 0 -4.3016268802503355 13.163549930825948 2.013722111255044 0 -1 0
960 0 2 0 -7.90936010341586 17.733941182454583 3.9432582449623332 -1 -1 0
1253 0 2 0 -4.896995164297137 12.193804663984796 13.317515582080636 -2 -4 0
978 0 2 0 2.9272064070706483 14.929141007529276 2.985084624514724 0 1 0
572 0 2 0 -1.9246594000658264 4.814551150641878 13.81853998231165 2 -2 0
1264 0 1 0 3.926395434998356 3.1895399730997007 -0.5212650042167809 2 3 0
168 0 2 0 11.494858045603772 2.081107839948041 -0.2657851118389871 0 -1 0
1224 0 2 0 4.386334082421825 3.358435392146302 1.0551275551187147 -1 -2 0
2366 0 2 0 5.802232316653789 13.607876606419376 8.677222870638477 0 1 1
83 0 2 0 8.497230112708355 2.551357710431655 1.865066420855943 0 1 0
1222 0 1 0 4.556012176356474 3.4598951166903777 2.0441191847565463 -1 -2 0
136 0 1 0 7.79138988568447 7.640090275222682 0.4094938375284427 -2 0 0
1002 0 2 0 0.46456030596442816 13.39405776662764 5.627417392008724 1 0 0
719 0 2 0 -0.3706042536214099 8.620461923212194 3.4092378742052922 0 -1 0
845 0 2 0 -3.0018171205958195 11.506355111248835 1.3335966498642127 1 1 0
147 0 2 0 9.115936545442842 10.621129655651751 0.32589039791642005 -1 -1 0
163 0 1 0 -2.292950644793666 13.465442482983564 14.891126484115688 0 0 0
1110 0 2 0 -3.1549000548404638 9.75705487310666 8.510094135033892 1 -4 0
1209 0 2 0 -4.786302268687026 10.458412808192579 7.383063993760853 -1 -2 0
191 0 2 0 5.437928488408184 2.02005254760892 10.61298980680166 1 2 0
34 0 1 0 -1.165936369307871 8.718661232869598 1.946014733364013 3 0 0
1279 0 1 0 -6.348226982859517 16.94091181343294 4.014986348260817 -1 0 0
1285 0 1 0 9.490211900963667 1.2997147781632408 7.236731836349419 0 -2 0
213 0 2 0 -1.1532451189911976 14.045723785651997 0.7462504821385698 1 1 0
584 0 2 0 2.8579042874705025 5.786993522767404 5.165888755338436 0 3 0
1211 0 2 0 13.929944130535736 -1.2097021204093688 9.625747030507354 1 2 0
269 0 2 0 1.3928434262293918 9.362472108806301 8.31033878992295 1 0 0
967 0 1 0 0.8223329682356993 6.766892963496602 7.756582076056171 0 -3 0
1294 0 1 0 7.047799932978189 13.096197770610623 0.9626812440437647 2 3 0
2372 0 2 0 9.768292250672237 2.8108472145282537 13.653640119963326 0 0 0
1223 0 2 0 3.7115037153046093 3.6022771578725328 2.5160002743800325 -1 -2 0
735 0 2 0 2.622941241531512 10.249242828815133 5.116089392739632 0 -3 0
738 0 2 0 7.02716897556933 10.909951335038613 13.756217022092367 -1 1 0
2451 0 2 0 4.6161144919523975 14.464491794077869 -0.003965671575556828 0 1 1
1119 0 2 0 -1.0778909520463604 16.894066116901968 2.413329995034856 0 1 0
17 0 2 0 1.2108185348255918 15.496242481295756 8.328183992863488 2 0 0
1519 0 1 0 -5.831401170672912 15.49961818773114 15.209745343518712 0 0 0
2259 0 2 0 6.702610729365152 3.122914559128126 6.394462705795095 0 -3 0
521 0 2 0 0.9939601766665397 9.304917991132452 -0.86590660398117 0 2 0
864 0 2 0 3.272683079447138 18.08914688359166 1.6716283572017279 0 1 0
834 0 2 0 0.5893037479098042 4.0971266866194185 6.627241747343809 1 -1 0
1235 0 2 0 -3.7212478457750207 19.538371176725917 4.112673016961164 0 1 0
2444 0 2 0 0.42225520512716325 7.088205506469515 -0.5179767661653072 0 0 0
1025 0 2 0 -7.978002938791755 18.73511300393975 2.0673973243807144 1 -1 0
852 0 2 0 8.430591000063385 8.100408647320558 11.911447620418652 2 1 0
837 0 2 0 2.937189145361403 6.688790329541938 1.908264798154522 0 2 0
1100 0 2 0 11.528459540511852 7.838449540775325 3.241906104956467 -1 -1 0
917 0 2 0 8.590347382451792 1.3933883864233623 -0.7925431406999958 1 -1 0
1152 0 2 0 6.891567925363415 8.211947391350991 9.926866285585442 1 -2 0
1084 0 1 0 2.6687944211813956 4.973285219531946 15.271363824832413 -2 -2 0
764 0 2 0 -1.8291273357540165 15.701387218510288 10.200463937545065 -2 -1 0
92 0 2 0 1.9233259413151649 14.191852774696688 14.637119509685618 1 1 0
559 0 1 0 9.555540665940361 9.24487353976184 15.315072491973542 -1 -1 0
1629 0 2 0 9.001927237114607 -2.6745162430364995 9.28029118512038 0 -2 0
2386 0 1 0 -1.3550196221684518 10.417872073527963 6.07930440064417 1 0 1
374 0 2 0 -4.676537501739657 17.48700292422167 1.6340883674453104 2 0 0
370 0 1 0 -3.053915166234662 14.466361544294406 3.963212792363781 -1 -2 0
1206 0 2 0 0.5498790812978043 12.379985982575622 11.428374259155328 0 -2 0
746 0 2 0 7.956246675385151 7.705480772119781 2.787204054033038 -1 -1 0
1164 0 2 0 -0.8564874391492021 -0.3603923007978178 10.759718557636083 1 1 0
35 0 2 0 -1.397918571092116 9.601723746542389 1.5898153586391026 3 0 0
1138 0 1 0 -5.389561271331123 10.64604828108466 9.25807601552186 1 0 0
1000 0 1 0 1.3435014561425613 13.151520899707501 5.371755800209113 1 0 0
567 0 2 0 2.552048926577267 0.7268386532690967 3.6942447293718086 0 -1 0
1012 0 1 0 -6.282217181407497 14.30171286596615 11.896028930939199 2 1 0
850 0 1 0 9.302481620413081 8.447914791980786 11.833285295995003 2 1 0
344 0 2 0 4.372015755074142 2.8824269104538467 6.20714427720058 2 3 0
1091 0 2 0 11.976274982818047 4.398785678271361 4.873794522231243 -1 0 0
1045 0 1 0 8.172501852091948 -0.18006524155671064 -0.23878060446159743 0 -1 0
1070 0 2 0 7.50459426777165 10.223696683220275 2.6073910337878266 -1 1 0
1030 0 1 0 0.5624853877307248 6.734292558329057 14.966130062375807 1 -2 0
1485 0 2 0 5.5907448996930595 16.46089282268894 -0.06592168405285947 -1 -1 0
638 0 2 0 -0.48535066707910224 5.6068667532064165 12.018733220294175 0 3 0
1252 0 1 0 -4.378215660740977 12.841756364141162 12.87360147336362 -2 -4 0
865 0 1 0 12.155020825477575 3.3457231760860218 2.307466776305475 1 4 0
911 0 2 0 7.002344473938493 -3.0162083499608827 9.912176457024554 1 -2 0
547 0 1 0 11.449525636952425 3.3838501625867092 8.206889171545239 -3 -1 0
639 0 2 0 0.5291795151492652 5.658511301945055 10.798747790363219 0 3 0
999 0 2 0 13.170004045997764 2.7244705186988387 5.84889065491915 0 1 0
843 0 2 0 -2.854096265474115 14.252958954909694 -0.6247836921591194 -1 2 0
1227 0 2 0 3.6446082841951917 -3.2847645718487106 12.193186854687838 0 2 0
2257 0 1 0 6.08528968637694 3.7238757717210564 6.850968060546357 0 -3 0
898 0 1 0 3.857927288523843 3.994656833451471 8.95551395655446 0 2 0
779 0 2 0 0.5921214531857845 17.27155736607043 4.887873595452416 1 2 0
847 0 1 0 0.6911300179951699 8.788847773232625 12.12693439049995 -1 -2 0
1104 0 2 0 2.995643286655504 -0.30481567571229107 14.675312650968976 1 1 0
2486 0 2 0 6.957372773907 -0.7533054698669108 9.66212397503802 0 1 0
1270 0 1 0 3.412650139954912 12.510132459946554 0.8291263354659202 1 0 0
479 0 2 0 2.633307669512677 0.9613175329402677 8.741348105134485 0 0 1
752 0 2 0 6.110916294695934 6.978941964369133 6.332062268094398 0 1 0
1015 0 1 0 8.286425085219758 11.328170592929386 9.636231455351497 1 0 0
1105 0 1 0 -2.2961963458721493 17.501649630825163 -0.6999859657333345 0 -4 0
47 0 2 0 10.284783232177617 11.093686269410018 3.1592806050166438 -1 -1 0
1250 0 2 0 8.071343734285438 3.6574732682974815 9.54178357461693 0 -2 0
1014 0 2 0 -5.9918828150195935 15.190686035283651 11.986895631556347 2 1 0
980 0 2 0 1.7596909915340233 7.950349439690544 14.854383539424044 1 1 0
948 0 2 0 10.167059330103356 -1.2168011905464216 12.607337252167554 2 -1 0
230 0 2 0 5.96873030552211 -0.07625221024408158 1.9066225649510629 3 3 0
1140 0 2 0 -5.939484789348679 11.035147099266972 9.944540759129298 1 0 0
2301 0 2 0 10.278197479765405 5.863671075768128 12.872156982785267 -1 0 1
206 0 2 0 7.689678668497321 4.388688681041079 0.9486079767478617 -1 -2 0
717 0 2 0 1.3809933809042025 19.151235784215693 0.8589148718848569 -1 -2 0
913 0 1 0 6.96046168124312 11.662261974657941 15.660654677252452 -1 2 0
307 0 1 0 9.760552798964142 4.346517889959692 10.060495728212068 -2 -3 0
797 0 2 0 4.370671245196388 -1.6994525384336 10.5083227146019 1 1 0
1208 0 2 0 -4.662949096828565 9.116725830589896 6.766116547055239 -1 -2 0
860 0 2 0 1.4968859001882395 -0.023093086106486638 11.322674924698553 -2 -1 0
1011 0 2 0 12.081612185153999 -0.401615137908657 5.875703693204684 4 3 0
522 0 2 0 1.1813829840347159 10.480446891764617 0.1222936530560319 0 2 0
1228 0 1 0 -5.073884164595969 16.673419220080355 9.686541076000806 0 -4 0
886 0 1 0 11.311334148948264 0.2094191259973499 12.469894151249397 -1 -2 0
353 0 2 0 6.244587323802964 3.147472764141913 13.892643270538482 1 1 0
615 0 2 0 12.27712907498524 3.672914336669696 13.070758774155879 1 0 0
490 0 1 0 4.470260724740714 10.267200490690394 5.167366797565428 1 -1 0
751 0 1 0 5.798459684524488 6.297047977185127 5.66853379611107 0 1 0
2258 0 2 0 5.906614585489859 4.519744278228402 6.350714089234401 0 -3 1
1274 0 2 0 1.816662652760824 21.24030702194142 -0.5609630628791044 2 0 0
443 0 2 0 -2.8411114627788168 16.675336501365834 13.333460657393468 -1 0 0
3 0 2 0 -0.8806455766519361 13.414454200306125 7.222885754859512 3 5 0
818 0 2 0 6.703246783098107 17.415652833912542 5.406045955199636 1 3 0
1628 0 2 0 0.47755080127837873 17.824215268625824 8.282597401915126 0 -3 0
555 0 2 0 1.8783016071011418 10.697609134222713 13.716971877555665 0 -2 1
507 0 2 0 -1.8641724377861333 4.267196702959921 1.6928218865002482 0 2 0
863 0 2 0 2.8948179258310973 17.46286250485929 0.31717655921293986 0 1 0
165 0 2 0 -2.4666416842225023 13.661886387192151 13.95892302374303 0 0 0
2206 0 1 0 -2.1449284860099427 4.20790214114502 9.486799223619512 1 0 1
308 0 2 0 10.163575031967198 4.0254058766607885 9.235560643144952 -2 -3 0
785 0 2 0 7.950565801731468 6.673226703932503 14.325477275617327 1 -1 0
1375 0 1 0 1.3822879330328466 3.811732590150986 0.947719596481515 0 0 0
740 0 2 0 2.80765064762185 -3.005664734894358 14.688985943014423 -2 -4 0
2342 0 2 0 3.4152880609015606 8.337461651945572 3.1286493392784327 0 0 0
293 0 2 0 0.8048644496978933 0.6185395187975922 2.176884039332592 0 -1 0
599 0 2 0 3.027984284700447 16.193128229876436 9.620124917269534 3 -1 0
786 0 2 0 7.587942888586394 6.135662826039188 15.704210974200013 1 -1 0
292 0 1 0 1.6547766892118683 1.1599294550553014 2.1484430081621237 0 -1 0
695 0 2 0 0.2874386598786662 1.8200917356671646 9.559589914246788 -1 0 0
2582 0 2 0 12.488294948939242 1.2655297960609477 15.383603688653665 0 1 1
888 0 2 0 10.892851305070746 0.991985886458898 12.874033565964796 -1 -2 0
284 0 2 0 4.250810709740609 0.27458313707750087 0.48938669066998486 0 2 0
603 0 2 0 4.0594777793418855 4.786377763257378 12.786841171459193 0 -1 0
1190 0 2 0 11.507982848877694 -3.9246852134483863 11.036323213270482 0 7 0
1263 0 2 0 4.991379816729422 17.765758339523032 6.446862827635397 2 1 0
859 0 1 0 2.3774871524809 0.20055201183259097 11.707959268216799 -2 -1 0
1016 0 2 0 7.877985512265933 10.499391805888761 9.884605451712018 1 0 0
910 0 1 0 -2.4440720123195607 17.629436121296457 9.576692812985216 1 -3 0
787 0 1 0 0.07512857790640312 8.686137961081736 9.403069366456824 4 2 0
129 0 2 0 5.929536999678651 8.115292842221763 2.9622777870686847 1 1 0
782 0 2 0 3.8748794398121342 8.590754814184038 11.630163606972369 2 4 0
874 0 1 0 13.613983024473699 1.1345908846634587 3.2934319620739663 -1 -1 0
1303 0 1 0 5.722476243713428 19.426056219499728 2.8858387274149084 0 -1 0
574 0 1 0 14.264396535398976 -2.5561259344429517 10.754415679333228 1 2 0
1280 0 2 0 -5.937818208699879 16.945619113136623 4.889872601984684 0 0 0
998 0 2 0 11.823947231236152 3.0631511626385186 6.479063221987681 0 1 0
195 0 2 0 1.071337536943341 0.04349953752567215 7.258122525143085 -1 2 0
279 0 2 0 0.3089121622222925 11.526431276615028 2.5955254147592135 0 1 0
343 0 1 0 3.4641367830601593 2.7974259453422716 5.930883941199898 2 3 0
979 0 1 0 2.393685078855066 8.714725049137314 14.87672975999557 1 1 0
1069 0 1 0 8.222739095398783 9.749744286400297 2.972980137450031 -1 1 0
194 0 2 0 0.353261567635923 -0.5744947533878522 8.404133556664434 -1 2 0
1009 0 1 0 11.786669243117657 0.09812481811363805 5.085329411968905 4 3 0
285 0 2 0 2.766289990694897 0.8171117758634218 0.8242671391290026 0 2 0
128 0 2 0 5.2656581726887595 9.260347645245819 3.793971247195037 1 1 0
715 0 1 0 0.45268837248089133 19.41944523603751 1.0273790615433722 -1 -2 0
553 0 1 0 1.6757851215727495 11.633096448420625 13.628600423759233 0 -2 0
688 0 1 0 0.5010558152935822 2.2139431476336844 13.016958598098903 -4 -1 0
748 0 1 0 -7.029731117131268 18.499302541929733 7.964181016498269 4 0 0
739 0 1 0 2.9274229482224836 -2.184727444647116 15.209460295170153 -2 -4 0
923 0 2 0 3.8219358479772474 8.806944638278623 7.766565033645634 1 -1 0
733 0 1 0 1.7074885335032817 10.496434481174402 5.335040464893222 0 -3 0
696 0 2 0 0.5256749917801262 3.2418062061061814 9.04074741733975 -1 0 0
219 0 2 0 9.053115458774828 4.830609890473905 5.1247292269663145 1 -2 0
116 0 2 0 4.728052385892644 1.2012842860386348 14.500889207223667 1 -1 0
97 0 1 0 -5.125683681134716 17.249444758125094 6.365046156557365 -1 -1 0
997 0 1 0 12.233863359142775 2.799098673146834 5.590105340961434 0 1 0
383 0 2 0 5.537876573664453 15.700275466982902 10.069691689857654 -1 -3 0
366 0 2 0 1.6835493294874477 4.317943160348075 3.8460953586952735 1 3 0
853 0 1 0 -0.7322239421668046 15.868694208845 15.281190747470145 0 0 0
687 0 2 0 2.4152197426973627 13.31352520247051 -0.35305063701361383 -2 -5 0
750 0 2 0 1.6810920884597989 -3.028209331837412 8.80272941064023 4 1 0
2552 0 2 0 7.975687351191843 -4.178861199463876 14.221754745941048 1 2 0
480 0 2 0 3.6517180796302307 2.061724614473999 9.19495691726877 0 1 1
378 0 2 0 4.5994135186090315 15.86565618379543 12.966803250688345 0 -1 0
2162 0 2 0 0.21832378865155674 1.380145356931375 -0.7839938071746977 0 0 0
725 0 2 0 5.0586959169168875 10.58756659774545 11.836651967103595 -1 -1 0
453 0 2 0 7.950694046598796 8.490887045220568 6.476041730625715 -1 1 0
1072 0 1 0 3.590550615951709 17.6153691009939 3.5465744304793256 1 -2 0
1158 0 2 0 6.7504714664680865 8.655268147464652 12.968397384864076 2 4 0
973 0 1 0 -6.277858191837733 13.924854702832192 8.998371114834077 -1 -3 0
497 0 2 0 6.0686703651923715 0.8638579028344826 4.962136917912031 1 -1 0
96 0 2 0 -4.685037138804745 8.51342539363755 15.11430515981737 2 2 0
2443 0 1 0 0.6160087200586264 7.606260478331464 0.32307240104056145 0 0 1
452 0 2 0 7.436580671635661 9.934215797976695 6.247400558775394 -1 1 0
63 0 2 0 3.8517156253544234 15.662878174460758 6.70931787896582 0 -1 0
633 0 2 0 7.433816646624192 13.663687304764853 2.978245350165234 -2 -1 0
1259 0 2 0 9.039518533602381 4.102114519504432 11.953389685788148 3 0 0
846 0 2 0 -1.5107270182099788 11.869333580894656 1.167857803671358 1 1 0
137 0 2 0 7.458941864483765 7.230572553563888 -0.37322464338176126 -2 0 0
1098 0 2 0 10.79333386563672 6.7221849668187605 1.3524897249518073 0 2 0
1024 0 1 0 -7.820250416322898 18.874084524359947 1.0901507982243759 1 -1 0
1001 0 2 0 1.9223289270143051 13.606800049049752 6.0212281650079955 1 0 0
1126 0 1 0 -0.1735238034186063 5.4823826508074935 3.7111642981253263 1 0 0
637 0 1 0 -0.384206572638098 5.70516723029681 11.041335170210784 0 3 0
283 0 1 0 3.4151478613952606 0.5838946136202288 0.0935090105055355 0 2 0
1281 0 2 0 -6.22743835693821 16.057795033358445 3.661590077437534 -1 0 0
742 0 1 0 -2.8847406186412017 7.073106562219557 10.393351877151325 0 -2 0
352 0 1 0 6.528399871562164 3.5988647443978925 13.08780308944175 0 1 0
969 0 2 0 1.4703059924597452 7.1776837545931205 7.148147899169148 0 -3 0
550 0 1 0 -2.155384072043065 16.81860598493658 6.763678834232286 0 -2 0
325 0 1 0 6.475136861834392 16.06987450359195 4.128094694432157 0 -1 0
1127 0 2 0 0.02221467636298012 6.417558894074322 3.917466161958438 1 0 0
1147 0 1 0 9.102806645623557 -1.2116196612221168 5.831494789086107 0 -1 0
640 0 1 0 11.616678713811543 1.083238022559589 9.420778611358937 0 -1 0
2387 0 2 0 -0.7912205360333675 9.795718691391265 5.606457160167371 1 0 1
951 0 2 0 4.198956558251205 6.6696620719750985 -0.28657192530386555 0 -3 0
329 0 2 0 -4.423808192962565 13.897675968457705 6.399018413319927 0 0 0
345 0 2 0 3.4424012038048324 1.8929214621301513 5.595959845297145 2 3 0
772 0 1 0 8.430829230503226 15.766468853943495 1.9300150236216642 2 4 0
535 0 1 0 4.923984000177213 8.106729919268222 15.587573697179426 1 0 0
375 0 2 0 -5.218749803546881 17.733088426164393 0.20246668223285202 2 0 0
1129 0 1 0 2.1008591146528115 5.920663827299839 10.064070102942054 0 0 0
868 0 1 0 -8.526883473554356 15.519336025627496 15.250799722749033 1 1 0
337 0 1 0 11.505515040492806 -0.5534203231494823 15.105909683674266 0 0 0
704 0 2 0 -4.026135993624318 12.29819644641425 9.2778780334219 0 -1 0
1249 0 1 0 7.14796361735564 3.469881244391206 9.426686846933602 0 -2 0
491 0 2 0 4.7483713090500315 9.89044069510704 6.006335393256229 1 -1 0
401 0 2 0 12.882208155067843 -0.05113488721562265 0.7773846036720238 -2 -1 0
602 0 2 0 5.386345652623129 5.154080052308046 13.210911980955032 0 -1 0
309 0 2 0 9.606669025190607 5.280117386288413 9.935779616386666 -2 -3 0
912 0 2 0 -2.1094911350954715 17.47443621361885 8.688147364547039 1 -3 0
975 0 2 0 -5.761327282601749 14.684322129067699 8.97414865322078 -1 -3 0
548 0 2 0 11.665107478077914 2.6572377041058477 8.838272864938123 -3 -1 0
217 0 1 0 9.18003453644796 5.780401732075053 5.018563719297611 1 -2 0
720 0 2 0 0.8038770405813486 8.865809889700003 4.391790892947396 0 -1 0
641 0 2 0 12.31302930058793 0.3771336723539034 9.271401977169441 0 -1 0
2295 0 2 0 7.358834383128175 -0.39806861726089426 14.079848196030097 2 1 0
372 0 2 0 -3.753126998334336 14.587472510545417 4.596447803473687 -1 -2 0
1245 0 2 0 -0.2665121799131854 -2.876951823037328 13.49882988861323 -1 2 0
781 0 1 0 3.390121436132308 7.802048315849732 11.915596163908955 2 4 0
2367 0 2 0 4.638724152526258 13.774628059191162 7.70259177805471 0 1 0
1260 0 2 0 8.577062547881475 4.456083990502207 13.437365182223134 3 0 0
211 0 1 0 -0.3689107929179141 13.457251051034547 0.7784875760486232 1 1 0
1130 0 2 0 1.8061770497770173 6.488390865614068 9.282550391809597 0 -1 0
409 0 1 0 6.003375659210487 1.2783912514513533 3.1999257769820098 3 1 0
947 0 2 0 8.975553541918089 -1.6976743583779474 11.731629974448415 2 -1 0
166 0 1 0 11.407793400717907 3.0530069737801595 -0.3009347155279828 0 -1 0
2450 0 2 0 5.969003713463216 14.30368899945791 0.6543442117794609 0 1 0
338 0 2 0 10.690396154202835 -0.8545926062661691 15.586495974323615 0 0 0
402 0 2 0 5.17198828757208 20.90338639237162 0.3290825705306988 -2 -2 0
1225 0 1 0 3.571766549637946 -3.9198076349779454 12.93199089875108 0 2 0
1151 0 2 0 5.823619800047891 9.29695375786105 10.233101862900646 1 -2 0
1484 0 2 0 5.746340278827006 17.88670925463873 0.6145706183379924 -1 -1 0
573 0 2 0 -0.6605345618913363 5.6620796280887085 14.256622782708797 2 -2 0
505 0 1 0 -1.1805016777807569 4.822933964930297 1.3551079779387876 0 2 0
581 0 2 0 13.515284005005304 4.04746937963789 1.7426029952186015 -2 1 0
473 0 2 0 -1.0001844794759727 7.548337644086306 5.430897013368608 0 -1 0
899 0 2 0 4.556131434940995 4.2851638889262365 8.3675709422185 0 2 0
1272 0 2 0 4.1821506298416 11.934593291794071 0.7788662801720141 1 0 0
922 0 1 0 4.733279195141228 8.813589236242354 7.432288284563805 1 -1 0
773 0 2 0 7.795154199114571 16.49110760130895 1.8203256078845675 2 4 0
1073 0 2 0 3.5893277133045287 16.652253079223996 3.3372611201803615 1 -2 0
474 0 2 0 -1.0701970294017178 7.285145285793334 6.902775692033944 0 -1 0
583 0 1 0 2.929432566561155 6.564559577066926 5.779276257981749 0 3 0
1189 0 1 0 1.9419262535783979 17.14802635181737 11.82415121415018 0 6 0
1028 0 2 0 8.424226168834306 12.387019744087802 6.400979227855408 1 0 0
99 0 2 0 -5.492494127665597 17.594805915344605 7.214382750067086 -1 -1 0
805 0 1 0 -1.9087249116232488 19.58842203745047 3.9927917534321953 0 1 0
1191 0 2 0 10.425451179762707 -3.692344243611639 12.100226664232173 0 7 0
1142 0 2 0 4.797257162262577 13.430424531492358 13.91045539769325 -2 2 0
478 0 1 0 3.3732895124330717 1.154081011271141 9.340771693221944 0 0 1
1150 0 1 0 6.653402760935239 9.084255775415492 9.695543365977592 1 -2 0
866 0 2 0 11.948699764348342 4.0169922058587035 2.9791990444869576 1 4 0
2371 0 1 0 9.911877355669974 1.9246174577882877 14.098441174751038 0 0 1
780 0 2 0 1.3656545089549845 16.982170220099153 6.18593996444267 1 2 0
1411 0 1 0 -4.660160811366524 12.370183362763242 1.4924318422220448 0 -1 0
400 0 1 0 13.824500744397909 -0.1911810164527506 1.0783353793424455 -2 -1 0
1167 0 2 0 -0.07782340593495402 0.9194189724896509 14.239852700331717 1 -2 0
410 0 2 0 5.499073935146078 2.0688267968359106 3.061128603058007 3 1 0
341 0 2 0 -0.9727561118594863 4.6335740495119015 4.87840454558432 0 -3 0
415 0 1 0 2.164768120997897 14.5362016609203 9.447802228105875 2 -2 0
18 0 2 0 0.05645370496612648 15.466843142085327 7.292195078159017 2 0 0
1103 0 2 0 2.8132952391610475 0.31479262020227416 13.298451573411867 1 1 0
575 0 2 0 13.55925417713053 -3.0407755713952387 10.260817948348915 1 2 0
371 0 2 0 -3.4376989736877825 14.759752773186753 3.1505824515852217 -1 -2 0
938 0 2 0 4.406058452676397 13.168186315306459 3.883321468550898 3 4 0
718 0 1 0 -0.10880218566082446 8.457480943113568 4.349953375681553 0 -1 0
832 0 1 0 1.149703943730184 4.105785809552389 7.3763355505909445 1 -1 0
1141 0 1 0 5.124790183325225 13.638245599974297 14.836438099847786 -2 2 0
848 0 2 0 0.4960007801724333 8.639961262117787 11.177263414923916 -1 -2 0
753 0 2 0 6.051877072475588 6.540671342677124 4.797886122699534 0 1 0
854 0 2 0 -1.285087402721378 15.102427071043945 15.280146728241224 0 0 0
270 0 2 0 1.941608088387831 9.964321379565565 6.877823145818719 1 0 0
569 0 2 0 3.6877349158929595 13.136449467566358 11.628286638299446 0 1 0
1090 0 1 0 11.937012125926417 5.357027526087512 4.557156621305036 -1 0 0
278 0 2 0 1.396647497844743 10.575516397004975 2.908609553433312 0 1 0
565 0 1 0 3.062354616109477 0.5480453436238144 4.507839592223662 0 -1 0
1295 0 2 0 7.855952121315927 13.540330146839661 0.6200463682632866 3 3 0
382 0 1 0 5.847785365271077 15.436237421170544 10.937536753452488 -1 -3 0