LAMMPS data file via write_data, version 23 Jun 2022, timestep = 163799000

2592 atoms
2 atom types

0 31.128 xlo xhi
0 21.465467 ylo yhi
-0.8421084426400807 32.547175280952715 zlo zhi
-9.18238 0.7869807566992444 -11.211341693742769 xy xz yz

Masses

1 1.008
2 15.999

Atoms # full

526 0 1 0 9.70879714063149 2.6926327630043487 9.13430908753634 1 2 0
1031 0 2 0 3.6434709329740236 6.981503086246159 15.029005576118324 1 -2 0
1519 0 1 0 -5.852016773720445 13.275175376473937 15.624792486261724 0 0 0
836 0 2 0 2.358494321026419 17.979288576293193 5.50738323472044 -1 1 0
173 0 2 0 9.706895253318347 -2.512456925465953 6.99701360973045 1 1 0
920 0 2 0 1.7378033276108313 3.8695267415128933 3.742586135650642 0 -2 0
418 0 1 0 -0.43635769431219695 16.635407299417555 0.2405612577876517 -1 1 0
402 0 2 0 -3.700830239999614 8.299116874561904 3.8004928341450563 -1 -2 0
835 0 1 0 2.349262156606593 17.98990097292333 6.462368861017514 -1 1 0
442 0 1 0 7.640674443869132 13.053782315265757 0.8241786773780873 -1 1 0
235 0 1 0 4.355100923467781 3.039275445693421 13.81434314600667 0 0 0
877 0 1 0 2.7526073375761375 -2.0041632636507165 14.001100483078854 2 1 0
517 0 1 0 6.884259971229904 7.309282134004201 5.52177914082781 1 -1 0
1090 0 1 0 10.49907397763251 4.312032957634981 3.7237249900176375 -1 -1 0
1223 0 2 0 4.949208247876637 4.5371743284334425 4.9594501801784405 -1 -2 0
137 0 2 0 2.43575659903941 1.2225635612725587 10.952764284373927 -1 0 0
1190 0 2 0 4.396635811218494 4.046609027206643 -0.29523347980343695 -1 4 0
136 0 1 0 3.335314561007993 1.4975130207373297 10.828665093428645 -1 0 0
669 0 2 0 3.4825237962383686 12.172557368780012 13.702578167316872 1 0 0
1263 0 2 0 0.44491850204171624 10.33551537558115 5.1092118339297095 2 1 0
1028 0 2 0 0.28036868988440455 7.341925123670132 -0.2176876833394653 1 1 0
178 0 1 0 0.48560002008589337 19.392902595871195 2.2688023190809457 -1 -2 0
525 0 2 0 4.3181033663774135 14.896916189864173 0.17969268728012344 0 0 0
601 0 1 0 -0.4531006435320381 4.965590584455691 10.902547101666094 0 0 0
758 0 2 0 1.4037105596836346 2.7968144361585408 1.731238412382654 0 -1 0
24 0 2 0 -5.126424282556286 12.769897693056706 7.348438117393606 0 -2 0
151 0 1 0 1.0712550211367031 6.013808011804507 1.1792447432956834 0 -1 0
1006 0 1 0 4.7150332551617975 2.1465856888054424 7.791723538847014 1 3 0
1085 0 2 0 6.092902579272678 9.196835156392666 15.202551472135626 -2 -2 0
237 0 2 0 5.094884181696623 2.8012659410072125 13.185770930114034 0 0 0
1277 0 2 0 10.574654419414909 2.922089191709817 -0.7965771242171353 1 1 0
300 0 2 0 2.9836977947050167 -2.40284330200915 10.84338789724461 0 1 0
463 0 1 0 1.0010404151949033 9.907088044852316 13.745661910759765 -3 -3 0
866 0 2 0 9.189152116179441 8.153728945268961 8.936177952391906 1 4 0
1664 0 2 0 1.2343873775151 10.592581464109843 15.508004810144241 0 0 0
282 0 2 0 2.3484604725890623 0.4618175437066282 0.04892676456700473 0 1 0
507 0 2 0 5.875894614337377 13.711283338904725 7.647708204025774 0 2 0
544 0 1 0 -3.8336137681857685 15.174217346117548 -0.7176711470911367 0 0 0
583 0 1 0 0.13397957676770356 1.0690663443887682 4.720333606778246 0 1 0
545 0 2 0 -3.563508037046351 16.109430360400776 -0.7306346952044381 0 0 0
460 0 1 0 -0.3812255818833795 2.333740890629851 7.2852654290195495 1 1 0
2342 0 2 0 7.565045182264627 10.185924207558282 -0.5371856894267506 0 0 0
605 0 2 0 2.863561399955442 10.823796610912646 -0.1640510637338395 1 1 0
1214 0 2 0 1.6550280873308658 13.081828685459195 6.544110380373605 -1 -4 0
1186 0 1 0 -2.6866100600969163 6.056966863901067 15.585586868221172 1 -1 0
2443 0 1 0 6.62919023902642 -2.7422199617408913 10.092718826117338 0 1 1
955 0 1 0 -3.1994223440701157 9.834684677480926 15.343864981060031 -1 -1 0
690 0 2 0 9.754295017911286 1.374041632401914 2.3160310199725473 -4 -1 0
1166 0 2 0 0.7968225478958089 -2.0322547147160686 5.225797509145521 0 -1 0
269 0 2 0 -4.073656428071226 11.564759675160332 4.059098481138435 1 0 0
21 0 2 0 -3.4334593962075193 8.816230956500545 7.761211924275269 2 3 0
719 0 2 0 9.981387699627527 2.4283809282098305 7.321140235879973 0 0 0
1034 0 2 0 2.523460940220498 -0.5020715045827262 8.05403275622999 0 1 0
28 0 1 0 6.899497750176752 15.615761534007774 9.482451919530492 1 3 0
677 0 2 0 -4.07983562024526 15.359305179410747 3.9031787256505783 -1 -2 0
530 0 2 0 13.038187540974858 1.6332193803636454 9.9288433155159 0 1 0
1345 0 1 0 15.490728978781958 -2.8808677231779742 7.995875850624504 0 1 0
2307 0 2 0 -1.6880235112596522 12.178562785091083 8.648383074426853 0 0 1
1191 0 2 0 4.5799635068203 5.244691738688882 0.6125695731760155 -1 4 0
98 0 2 0 8.155096147151157 4.90209720014166 11.186215315107413 -1 -1 0
217 0 1 0 -8.893682365594314 20.152948924642967 2.121095665273093 0 -2 0
374 0 2 0 7.488561536714121 11.383437521953894 11.921185984419896 2 0 0
935 0 2 0 -6.119794957057579 17.215472758427424 8.800562142065422 0 -3 0
1011 0 2 0 1.0662306264560066 13.513568659674329 10.202855365657802 3 2 0
553 0 1 0 -0.4660420266178201 16.30713095532477 11.696366998974497 0 -2 0
1213 0 1 0 2.5292177787402683 12.861955299996918 6.221241064735472 -1 -4 0
414 0 2 0 11.181939420451531 5.0087392975680345 9.176144851870724 2 2 0
574 0 1 0 11.735213775355847 -0.5588515587185059 1.3886083945546561 1 2 0
1167 0 2 0 -6.901322243030983 18.91953214681345 5.137160429184414 0 -2 0
2486 0 2 0 11.632925911916866 -0.9633813024167162 13.536862089990107 0 1 0
543 0 2 0 6.854896237107187 10.20229965118189 6.35891300946329 3 1 0
1009 0 1 0 1.6329608499060912 13.097383880864891 10.872815187104408 3 2 0
152 0 2 0 0.3622600608138614 6.082907680510485 1.8421360076036497 0 -1 0
624 0 2 0 -2.3428868402728256 5.285464935682061 8.413586464193719 3 3 0
1170 0 2 0 7.7492689781872945 13.6318371595358 5.727885204674484 0 1 0
929 0 2 0 0.4074016795818354 10.2225840617664 2.022719013831818 1 0 0
781 0 1 0 3.150731234381048 6.487075868633518 9.394973168551473 1 2 0
214 0 1 0 11.746113817187615 -1.1915720109607841 9.261536978492984 0 0 0
652 0 1 0 -0.8754042657226917 9.337199849131016 10.404675282742863 1 1 0
334 0 1 0 -1.785308215574513 4.6356598052943365 6.728641602825218 -1 -2 0
655 0 1 0 -2.2314636323166925 7.653365023975459 12.297765470401522 1 0 0
833 0 2 0 -1.2783031302700976 16.911125436750257 7.822393090915757 1 -1 0
37 0 1 0 8.36382090526963 16.221803405225412 -0.19826993020360295 -1 0 0
907 0 1 0 7.085583496355803 -4.1602840965536 13.805100494160927 -2 -3 0
16 0 1 0 -0.3203078965309737 17.440930903504125 4.184208641464943 2 1 0
1272 0 2 0 1.8670058969604462 3.5130408274162703 9.05326458539956 1 0 0
1088 0 2 0 2.9535091330298195 3.580219876410818 6.9137991262464125 -1 -1 0
978 0 2 0 6.516269894618125 13.103926263612344 13.16633076255074 0 1 0
634 0 1 0 -0.9342829097020199 11.036657106045737 7.415082067774355 0 -5 0
71 0 2 0 10.460738799100003 9.400573827487214 6.0961069371020296 3 0 0
847 0 1 0 5.169602685897716 11.174872581371474 9.576895507126428 -1 -4 0
1055 0 2 0 -1.6073758531471245 7.811740819922034 6.587645463236519 0 1 0
1229 0 2 0 2.4707267755670186 -5.089790491357809 15.028656444631556 0 -3 0
1262 0 2 0 1.010707016736338 9.374716691816415 4.095219831983756 2 1 0
871 0 1 0 7.623064470396214 4.1612011902696455 1.2894378403456672 1 1 0
529 0 1 0 12.87021003078452 2.2114625473395284 9.182388198482062 0 1 0
1033 0 1 0 3.335570892514743 -0.2849533172233887 7.643988229159868 0 1 0
604 0 1 0 3.0111241009004224 11.719692993728046 -0.4015944268639135 1 1 0
67 0 1 0 2.8496177267332135 17.52265805775482 3.709194105352174 0 -2 0
473 0 2 0 10.184270795729963 7.4450719309306415 4.863077755228083 0 -1 0
179 0 2 0 1.3750826584606517 19.8432844136096 2.3561303759223193 -1 -2 0
994 0 1 0 6.680240766508887 10.893811570197373 2.418508283341114 -3 -2 0
1010 0 2 0 1.8049326673771038 13.843966254146434 11.486957784524698 3 2 0
696 0 2 0 13.820397803139045 -1.3988744875975359 13.09352585905164 -1 0 0
930 0 2 0 1.6294905430718383 9.321998299484646 1.5798400018474408 1 0 0
653 0 2 0 -0.7799669166537311 10.226220787908398 10.836780651931466 1 1 0
18 0 2 0 -0.7337334458607021 17.859633137887595 4.9360618662588465 2 1 0
742 0 1 0 -2.502033655484481 19.581949454429374 0.9071511907975489 0 -2 0
1271 0 2 0 1.3102462376678763 4.225777882686474 10.3186193610409 1 0 0
532 0 1 0 13.49228485530872 -1.1967729745001043 6.938553422032155 -1 -1 0
888 0 2 0 -0.3100523066260071 -0.9851103315874554 12.214813251315293 -1 -2 0
19 0 1 0 -2.5541206467539763 8.597246318038454 8.126522683565392 2 3 0
1556 0 2 0 12.753609480986029 1.7408286305091578 2.9570849863702544 -1 1 0
2553 0 2 0 3.7464177113360604 9.569123088238248 6.598120312543345 0 1 1
542 0 2 0 7.1238442255793375 10.571028167317287 7.7599289152239965 3 1 0
253 0 1 0 14.40394648577628 1.1897686134544974 2.5744162586965165 -3 0 0
96 0 2 0 4.512106681990598 -5.197992676735187 14.99569611601665 2 3 0
918 0 2 0 1.3980057534717982 15.573573206258294 8.40865403092437 1 -2 0
316 0 1 0 7.856069974647499 4.682596091632312 4.8775012503269135 0 0 0
684 0 2 0 7.434611692660941 7.896024229144817 -0.7262396799835564 -2 -2 0
2378 0 2 0 10.839834405683911 0.11799903277248269 10.479768769032425 -1 0 0
285 0 2 0 -7.734356894818039 17.17691102637335 11.27495808619143 0 1 0
726 0 2 0 6.624201540894217 5.994714871189682 14.867151670787758 -1 -1 0
1061 0 2 0 -0.24489696828329452 13.933613070448864 5.762934415335542 0 -1 0
832 0 1 0 -1.0708745618447155 16.876674220707834 8.734499630597819 1 -1 0
195 0 2 0 4.353998772870719 11.293788637444287 11.60213242370163 -1 3 0
20 0 2 0 -2.658641757991445 7.811990478547849 8.747340062195404 2 3 0
25 0 1 0 10.931963391279329 0.258826274328102 4.982068360522027 1 5 0
903 0 2 0 4.917142526177001 0.7802427704978232 9.775324044254644 2 3 0
1188 0 2 0 -2.1581000765028566 5.880776834658378 14.799295754293825 1 -1 0
443 0 2 0 7.08913379676297 12.423170886615932 1.3529186161334557 -1 1 0
372 0 2 0 4.586632911146299 17.27125419173004 -0.7797032727020206 -1 -2 0
147 0 2 0 9.606135825570481 6.333581525566617 7.782785413506593 -1 -1 0
491 0 2 0 8.843677286661253 -0.7043474291787883 8.521737377630924 1 -1 0
275 0 2 0 -0.24339499427876776 -0.5723442409616375 15.282651188189826 1 1 0
131 0 2 0 10.526567643621386 1.9096241045971247 14.46218196702227 2 2 0
467 0 2 0 11.990874689188546 2.4924734982917074 5.936878035180911 0 0 0
244 0 1 0 9.566075247792813 8.614473278439275 10.698951032123304 0 1 0
2551 0 1 0 3.7039345215541584 9.658223551556247 5.6244318652384075 0 1 1
572 0 2 0 3.2095097985103274 -0.6941248657513066 1.8885241926431342 2 -3 0
878 0 2 0 2.880306726541649 -2.8352023634873844 14.52691648790901 2 1 0
1153 0 1 0 -2.125920354316425 17.213516797787285 2.198277971976756 -1 -4 0
755 0 2 0 -5.714541158448054 10.055594997453097 13.24787045055361 0 0 1
150 0 2 0 -0.4823537020942307 15.275026937786677 9.084021670891696 -1 0 0
123 0 2 0 -2.2613907746481567 5.601322136222886 2.6416779410553675 1 -1 0
509 0 2 0 2.0738428283930372 14.39075694749823 1.756355211636044 0 -2 0
14 0 2 0 -1.3424369699867515 3.451177744256748 11.718885742898767 2 1 0
472 0 1 0 9.483055422194866 8.090236040217501 4.941523863797028 0 -1 0
153 0 2 0 1.2974500952597692 5.0603958454500875 1.2462433701967184 0 -1 0
117 0 2 0 6.883460708492392 2.30075415607464 15.328856254890303 1 -1 0
1062 0 2 0 -0.4710827877211584 12.503412007972926 6.4571484259008125 0 -1 0
1640 0 2 0 6.503210680079105 16.594935128162405 13.031869079073795 1 -1 0
865 0 1 0 8.649669915247417 7.6338351169974 8.317912198995955 1 4 0
432 0 2 0 5.838926223068887 -1.2005116862556604 12.396734851353601 0 3 0
704 0 2 0 -3.660354414992546 11.372127851329978 14.25348912839372 0 -1 0
310 0 1 0 1.4944279430184946 6.27244872724739 7.048712818622619 1 0 0
902 0 2 0 6.45507487319563 0.4405672437443666 9.43235053083662 2 2 0
857 0 2 0 -2.260968839485755 14.704932530014489 4.848655278886702 0 -3 0
1184 0 2 0 5.238186702599948 5.912107105721445 12.328673283607962 -1 -1 0
1054 0 1 0 -0.8488730502712158 7.54693111418565 6.024612328988964 0 1 0
2365 0 1 0 -2.5453143593239997 8.18901410779384 0.901658005738913 1 3 0
221 0 2 0 8.641019498514684 -1.0672411581617287 3.3536269444913076 1 0 0
1198 0 1 0 -1.4586323982946237 1.0220795639003972 9.583223008529838 -1 0 0
1215 0 2 0 3.095131872614559 12.59516100680143 6.954089729017736 -1 -5 0
298 0 1 0 2.202293040320161 -2.5666022790696625 11.314539890801633 0 1 0
100 0 1 0 -0.10935818456177315 2.8819969484544536 15.060920538595921 3 1 0
1261 0 1 0 0.9742438065183051 9.559636873790755 5.039522152449809 2 1 0
1270 0 1 0 2.123394356913052 3.9882161989355915 9.834265938031162 1 0 0
923 0 2 0 6.336267524473586 1.869033361742022 11.387261983736952 1 -1 0
1303 0 1 0 7.3412838149993265 15.590953245627027 2.273623899206786 0 0 0
672 0 2 0 13.82872155045745 -3.4810064438203026 10.786001617943349 1 2 0
1246 0 1 0 2.6225689429493753 0.330106434490266 5.008903133442486 -2 -2 0
657 0 2 0 -1.7207388038543494 8.203069756458797 11.644847069202827 1 0 0
106 0 1 0 4.985499054221457 7.955512526553097 3.6815810597006777 2 2 0
996 0 2 0 5.985101856550747 10.420642830330184 1.9467521075081264 -3 -2 0
724 0 1 0 7.138164431650965 5.607103629963843 14.177784247631694 -1 -1 0
107 0 2 0 4.395172591318336 8.359433252679235 4.339234086741816 2 2 0
122 0 2 0 -2.731629630405049 6.681577523685772 1.617588816060501 1 -1 0
1598 0 2 0 2.6185772087607355 16.4102707739206 0.39389100021827606 0 0 0
132 0 2 0 10.213442377029047 1.0907129983222346 15.669930361791776 2 2 0
164 0 2 0 4.3693295397607805 16.03631965231159 14.200800418377167 0 0 0
1628 0 2 0 3.540968537770935 8.576526374213632 0.48807834016406826 0 -2 0
1131 0 2 0 -2.6406028023890147 18.430447532376295 6.869391666483066 0 0 0
778 0 1 0 10.535650390184697 -4.2837259724230785 15.478079125345166 1 3 0
1228 0 1 0 3.107340252167082 -4.398877386689609 15.086504389165631 0 -3 0
75 0 2 0 3.0240742053242933 16.011813614835315 4.601696518546288 1 0 0
69 0 2 0 2.5372608487206088 17.24480959111817 2.840270326502452 0 -1 0
482 0 2 0 9.864009659640054 5.978038914664617 1.2019309954566655 -2 2 0
304 0 1 0 -4.77236396419593 11.045377775162141 10.026198113202183 1 2 0
2367 0 2 0 -1.955865499979883 7.891242200863012 0.16747622997773126 1 3 0
1145 0 2 0 -0.7217409179737495 7.780386438017761 15.421034491579986 1 0 0
590 0 2 0 7.686983050218032 0.9686682791274679 12.607560069339376 1 0 0
588 0 2 0 -1.880523341518498 8.781435928752826 2.6335194690433914 0 -2 0
280 0 1 0 1.95119941670969 1.0472476463489293 -0.656194060390438 0 1 0
1035 0 2 0 3.0501416737944393 -0.1294493469225908 6.7519344749499925 0 1 0
1183 0 1 0 4.4199548401056425 5.4157854619141075 12.068140179590051 -1 -1 0
306 0 2 0 -5.377143260077191 11.605232918332417 10.550980103603752 1 2 0
744 0 2 0 -2.734888255169596 20.395048966574407 1.376294652563017 0 -2 0
1218 0 2 0 -3.4995107630715276 15.193654563637148 10.28629670612395 1 -1 1
1296 0 2 0 10.920357596586971 6.2221439409713515 6.181320107270287 1 2 0
433 0 1 0 11.870373741996413 -3.711504959995785 10.516827416317794 -2 -3 0
343 0 1 0 0.05732285307723008 1.386229832871734 1.0854935283197298 2 2 0
388 0 1 0 13.349929107144801 -0.7297301896020575 4.108063228458652 -1 1 0
703 0 1 0 -4.070847775595746 12.106858696089926 13.733077539739078 0 -1 0
268 0 1 0 -3.4009604835225025 12.077464788608864 4.5314308005190735 1 0 0
462 0 2 0 0.5677538373395068 2.4803024278979584 7.2887760818745875 1 1 0
547 0 1 0 8.095881167497053 6.584766714195972 2.2920894398151703 -3 -1 0
967 0 1 0 9.324436305896473 7.031706759840322 12.960760774073245 -1 -4 0
471 0 2 0 -1.3258475735270454 13.921580763114441 13.638580212236034 2 0 0
232 0 1 0 0.9058552503114002 9.338091838908928 8.405834336414287 2 0 0
912 0 2 0 10.848421346810328 10.38282555173968 -0.07001279306726904 2 -2 0
1216 0 1 0 -2.656911972910734 14.796392221535207 10.435416278635637 1 -1 0
616 0 1 0 -4.744422488792781 11.895621965006248 -0.49860123143377655 1 3 0
299 0 2 0 2.48344468555653 -2.4262996714980734 12.254701548022227 0 1 0
115 0 1 0 7.543632318751987 3.0370173071348745 15.31209865594853 1 -1 0
676 0 1 0 -3.997460456882177 15.437590018778861 2.9195486503831143 -1 -2 0
845 0 2 0 -7.2603571130419144 14.282721354764359 15.296237838238275 1 1 0
470 0 2 0 -2.5572554585212335 13.037987290526317 13.311458764371519 2 0 0
1434 0 2 0 6.209572485022367 7.52933843895206 7.203240804490946 0 0 0
926 0 2 0 4.815720549799751 19.313473393107643 0.200191771230255 -1 -2 0
885 0 2 0 5.936096664900704 3.7531403757653043 10.476032460710929 -1 0 0
403 0 1 0 5.004373715601084 1.3226161890385664 3.992654040371013 1 2 0
856 0 1 0 -2.8239748842504655 15.09172291971338 5.500372149771684 0 -3 0
329 0 2 0 6.627079404874661 -0.012563314277138637 15.486115161683648 0 1 0
1125 0 2 0 4.177738777025698 6.646318547834454 2.482807568682041 -2 -1 0
567 0 2 0 7.4038974721514 3.750793794830295 7.4593454533702985 -1 -2 0
531 0 2 0 12.554528335954727 3.056918744478497 9.646289228972655 0 1 0
430 0 1 0 6.648774609670833 -1.7171729363423074 12.449078425864368 0 3 0
1146 0 2 0 -0.336646633292838 8.93134904911445 14.355520820772472 1 0 0
938 0 2 0 -1.4118809245618889 12.464540134187619 1.5473405244646026 3 3 0
674 0 2 0 -2.959953503668483 18.616104723564547 -0.5532332339376994 1 1 0
648 0 2 0 6.044465936263537 1.0946082298406619 2.436019979426754 -1 2 0
1084 0 1 0 6.874611517942589 8.819461629646312 14.737051454570835 -2 -2 0
908 0 2 0 6.880246758602457 -3.3546808647306587 13.297681441657119 -2 -3 0
939 0 2 0 0.01307936480421077 12.799511523616378 1.6089591234752403 3 3 0
549 0 2 0 7.906794712308497 5.6495737297193855 2.131121873808443 -3 -1 0
968 0 2 0 8.623576369499162 6.4689148107196734 13.307961749915032 -1 -4 0
2485 0 1 0 12.327473120313336 -0.367853416849921 13.267146899258673 0 1 1
891 0 2 0 8.176946008658993 14.039196208340524 9.305948546923874 1 0 0
603 0 2 0 -1.116922643925036 5.447474658493043 10.448845198467316 0 0 0
474 0 2 0 9.465043506528568 8.68826527536323 4.198812442036362 0 -1 0
216 0 2 0 12.552209542421162 -1.0298159444429298 8.760921399036516 0 0 0
981 0 2 0 4.279054753851762 12.716627804073692 0.9387332782865621 1 1 0
796 0 1 0 12.05410320056622 2.881016376444607 13.932690042402642 1 1 0
937 0 1 0 -0.5830076974580153 12.01049960565814 1.5913337755583363 3 3 0
1255 0 1 0 -6.125862138796096 15.289982268085573 0.9778690865391293 -2 0 0
640 0 1 0 5.421006959167058 13.866088973981581 3.5560100444919094 0 0 0
2306 0 2 0 -2.257663198438094 13.303473180128625 9.539680232869276 0 0 0
752 0 2 0 4.153352593288881 8.559036683507827 8.690488274588978 0 2 0
2552 0 2 0 2.720945512938562 9.830623053794955 5.4139381974048435 0 1 0
518 0 2 0 7.064154530437054 6.343729636278843 5.6037010280314545 1 -1 0
867 0 2 0 8.20340323735396 8.40026837700473 7.921586950666805 1 4 0
523 0 1 0 4.013071370601879 15.66174793647439 -0.3960045341909016 0 0 0
1042 0 1 0 -5.888911092796676 18.694124884411444 2.184366534725385 -1 0 0
245 0 2 0 9.322270585596396 8.115400850970573 11.502148136642681 0 1 0
1185 0 2 0 4.657727069579394 4.904282121102613 11.278026093733372 -1 -1 0
1627 0 1 0 2.6164026653633488 8.751879251680743 0.20850529526143569 0 -2 0
451 0 1 0 5.705094305991654 7.849523277539378 12.355398683810654 -1 1 0
2377 0 1 0 10.696455953279806 0.8098611810503336 11.150737175662254 -1 0 0
1091 0 2 0 10.595237796456772 4.8083966518912895 2.8837389565888962 -1 -1 0
116 0 2 0 8.44998120014705 2.539262145456197 15.180278596477295 1 -1 0
240 0 2 0 9.202908069718896 13.747834880669446 1.2949335513993496 -2 -4 0
505 0 1 0 6.566863770963087 13.140172451556861 7.27659487395419 0 2 0
622 0 1 0 -2.5581786848291026 5.882225646809851 9.161095797284649 3 3 0
1044 0 2 0 -6.299765804919831 18.067376670279092 1.5795729087135828 0 0 0
592 0 1 0 9.52898634191805 -2.5026493190486416 11.054178638830141 1 2 0
1245 0 2 0 2.5456662009085584 5.565650271929144 12.506075509993867 -1 1 0
1175 0 2 0 6.64848923886148 18.351469612030865 3.359019992754061 3 -1 0
869 0 2 0 5.117131359823892 16.08466075207458 6.160065716992383 1 1 0
589 0 1 0 8.368991199109606 0.29951750506268926 12.829889043080408 1 0 0
330 0 2 0 5.599309163574614 0.31884964296398444 14.35276685179726 0 1 0
1251 0 2 0 -5.621783324072762 14.261848032054576 12.072672898367415 0 -2 0
884 0 2 0 5.261193451066537 3.0350127143380803 9.305431129437261 -1 0 0
764 0 2 0 3.0696103748016736 1.9170344517745814 14.40500531758292 -2 -1 0
623 0 2 0 -3.46834811824111 5.759352638377619 9.369233021733088 3 3 0
980 0 2 0 4.863116633638021 13.715473123738857 1.931840748709861 1 1 0
492 0 2 0 8.882574668282052 0.7984002963944636 8.963001472379268 1 -1 0
431 0 2 0 7.272439796066948 -0.9868707282369229 12.713976303950794 0 3 0
1220 0 2 0 -4.559625809798329 18.933937636857785 5.14323997103558 -1 -1 0
977 0 2 0 5.300630587865324 13.571882040299158 13.906254287535116 0 1 0
1282 0 1 0 -1.5472578023443513 4.677975753881369 -0.3659908521520529 0 0 0
2379 0 2 0 9.957623013363753 0.4558573766390044 11.640015087965205 -1 0 1
1641 0 2 0 14.853711365646852 -3.572662259932301 13.38738919601982 1 0 0
47 0 2 0 -3.2727849290016136 6.210623952893314 12.129416411674974 0 0 0
860 0 2 0 0.1660059999472249 -1.7670706738217563 7.561359576417145 -2 -2 0
528 0 2 0 9.00915377937428 3.2212744790912082 9.461763673454312 1 2 0
1069 0 1 0 5.835200152687981 -1.071965634444624 5.348279981645484 -1 2 0
587 0 2 0 -1.5073212910729008 9.690120026564934 3.846562807438681 0 -2 0
2444 0 2 0 6.727847113524488 -2.1384311391443016 10.905241211078977 0 1 0
383 0 2 0 -0.514869700603957 4.412442958795453 14.160151976807768 0 -2 0
2402 0 2 0 4.4337521152160315 14.212577124987652 9.830429523232404 1 0 1
1265 0 2 0 -0.2460895607971032 15.718474537923608 4.043866812311005 1 2 0
84 0 2 0 6.868262909665516 1.6490586835748409 5.725025087445864 1 0 0
705 0 2 0 -4.730555074874178 12.555192014619136 14.28845623521049 0 -1 0
461 0 2 0 -0.6741228379948057 1.9339511416660558 8.106496686467594 1 1 0
445 0 1 0 7.055132167002583 6.218467400021202 10.40530771761217 0 -2 0
73 0 1 0 3.513071948457917 15.415118132368475 5.191413415313198 1 0 0
103 0 1 0 0.22738554854134102 19.240298190393688 -0.5728682191680603 0 -2 0
446 0 2 0 6.756902267933277 6.90114771960989 11.03226006904995 0 -2 0
382 0 1 0 -0.7400676673610723 5.275642585807527 13.828329812397921 0 -2 0
205 0 1 0 -4.612909706909496 16.9274087266287 10.384050774670957 -1 -2 0
506 0 2 0 6.253196521020453 12.494224727410122 6.652952529890745 0 2 0
862 0 1 0 -0.18270495367607265 11.377696299286068 11.979028088112365 0 1 0
345 0 2 0 0.22681597196003084 1.0468965590402974 0.19405659599538883 2 2 0
689 0 2 0 9.523732338647886 1.4165210798060914 0.8200948576200562 -4 -1 0
2314 0 1 0 5.440650805610524 -2.007376203672409 7.845619685980157 0 1 1
27 0 2 0 11.73148822791612 -0.2926418440627505 5.105032662410053 1 5 0
670 0 1 0 14.775897720564208 -3.6802933827650395 10.58235745581666 1 2 0
1077 0 2 0 4.029658219936804 9.304109280736482 15.22721618457694 2 1 0
671 0 2 0 15.358283766728093 -3.080970050094836 11.0160895042641 1 2 0
825 0 2 0 8.618334679035748 10.315960089894238 2.3584677525309443 -1 -3 0
1217 0 2 0 -2.7258339295778016 14.39944034097729 11.313699209215129 1 -1 0
1176 0 2 0 6.297976507927487 16.98646836635758 2.9429324573615796 3 -1 0
1189 0 1 0 5.050900873434291 4.7569079175584195 -0.06952432173905143 -1 4 0
969 0 2 0 9.940567739862097 7.193605093022132 13.659655305988137 -1 -4 0
145 0 1 0 10.168786206357769 5.524137265615188 7.686384783681403 -1 -1 0
1148 0 2 0 3.861638712094709 15.470731468767001 11.582283077291255 0 -1 0
928 0 1 0 1.099902595508645 9.63943096828867 2.3490668840643685 1 0 0
1076 0 2 0 4.293653789493654 10.839674991033892 14.875854622577448 2 1 0
870 0 2 0 6.096153943246709 16.987429635323778 7.103210748414636 1 1 0
898 0 1 0 7.786603094401216 10.90904364443097 10.226461534347703 0 1 0
743 0 2 0 -2.308986013193638 18.87072403030367 1.588708401978956 0 -2 0
1032 0 2 0 2.6951566282407535 7.338408589005721 13.929443312643084 1 -2 0
995 0 2 0 6.393030426664273 10.8142153644105 3.362798078292273 -3 -2 0
732 0 2 0 4.410422654405108 3.201261272173001 15.653193218115133 0 -1 0
1060 0 1 0 -0.07463874346554322 13.379414091559925 6.55666415693206 0 -1 0
101 0 2 0 0.7203384048780075 2.383870288440459 15.06054056109513 3 1 0
2401 0 1 0 4.522524459544191 13.869125357769978 8.898735528126439 1 0 0
174 0 2 0 0.019602670362709074 18.35208611650613 8.23807335400835 1 0 0
91 0 1 0 -4.757856392067822 8.898278113956156 12.157400927859985 3 2 0
95 0 2 0 -3.336309196105641 16.224114778035442 14.430711686321953 2 2 0
138 0 2 0 3.230330304451644 2.4648106465879986 10.841358035920464 -1 0 0
1599 0 2 0 1.1492429880149235 16.627806802917686 0.9518267107752378 0 0 0
571 0 1 0 3.354358990609149 0.21482632084765085 1.6654958531514792 2 -3 0
906 0 2 0 3.1864081895867367 9.367309436419582 11.635640504111944 2 0 0
725 0 2 0 7.400283964666227 4.715052860662708 14.451380561383402 -1 -1 0
1639 0 1 0 15.085069549545354 -4.467115507237281 13.681722248087201 1 0 0
78 0 2 0 2.6209712524101128 12.133152966072082 4.570741756465352 2 2 0
406 0 1 0 -2.962668209733555 13.300491979073373 1.2423091814072538 2 0 0
493 0 1 0 2.181623268601719 15.5126082599207 12.420570831549403 1 1 0
797 0 2 0 12.622375333093709 2.458795647908821 13.252823677926784 1 1 0
919 0 1 0 1.0797340643532733 3.8660034834413866 4.511650060039315 0 -2 0
594 0 2 0 10.391840326088722 -2.627093742060645 10.702140138642791 1 2 0
1256 0 2 0 -5.484159784634472 15.223015614276042 0.22929675203312816 -2 0 0
944 0 2 0 3.272512001298415 5.982217171725466 6.247809933578225 0 -2 0
149 0 2 0 -0.12546105377458064 13.981283906229965 8.179653387562109 -1 0 0
2293 0 1 0 8.339633994076957 -0.9723165783428085 15.56323888433686 2 1 0
447 0 2 0 7.8698340702237415 6.679728084622415 10.122523615035643 0 -2 0
1008 0 2 0 4.191523577416316 1.2856166862433343 7.692716575036984 1 3 0
1283 0 2 0 -1.9983441890457958 4.798122491291942 0.5188090932762714 0 0 0
130 0 1 0 9.772319279053628 1.4842224436249776 14.874622705033488 2 2 0
386 0 2 0 -0.22878120556159456 11.235155365575256 -0.42583138283821254 2 1 0
83 0 2 0 7.687741230699819 1.2706253158361935 7.0119987719321974 1 0 0
2257 0 1 0 10.291418903541322 -2.194528122077121 13.70146162014783 0 -3 0
125 0 2 0 -6.120871897963771 16.14330920369422 7.015236527230338 0 1 0
848 0 2 0 4.950445712030461 12.056479625221376 9.255512616701688 -1 -4 0
13 0 1 0 -1.5459372118766823 2.510704382895276 11.962144479243634 2 1 0
1221 0 2 0 -5.151583873159 17.521413085378775 5.497717497163667 -1 -1 0
390 0 2 0 13.568022721537487 -0.08103122878529145 3.4692716959254897 -1 1 0
521 0 2 0 4.871446671278332 10.925665037312399 5.27756139996779 0 2 0
909 0 2 0 7.8454193075334935 -4.474247288268016 13.232883114351859 -2 -3 0
481 0 1 0 10.765950464296232 5.624006056002606 1.2430653931943438 -2 2 0
1087 0 1 0 2.0108438025740223 3.6631932691915687 6.972060396832181 -1 -1 0
2187 0 2 0 0.19274398935708467 -0.2523323633554826 9.332828202373904 0 0 0
834 0 2 0 -1.830587867736068 17.346250405112432 9.118430195216856 1 -1 0
1144 0 1 0 -1.06310499003675 8.375924247776847 14.71789836954168 1 0 0
1432 0 1 0 5.676782263252625 7.296076600956466 7.989949880003898 0 0 0
904 0 1 0 3.0172281104749907 8.42136956850859 11.560591570114942 2 0 0
1092 0 2 0 10.863621472102878 3.4424436256484956 3.4768195550773795 -1 -1 0
520 0 1 0 5.695482477374089 11.343721836749708 5.0061358249563614 0 2 0
718 0 1 0 10.041065780147033 2.2925571398822497 6.3210036589631935 0 0 0
17 0 2 0 0.05239881714840035 18.09393500053032 3.6332952286545117 2 1 0
2445 0 2 0 6.190709996232345 -2.160416882695742 9.52401851303787 0 1 1
1155 0 2 0 -1.692154731139299 17.29901825108906 3.065505821209227 0 -4 0
1206 0 2 0 5.137233512089523 8.586825554518725 2.15289953578447 0 -3 0
165 0 2 0 3.976291205514194 15.22439538508505 15.514043309251802 0 0 0
548 0 2 0 8.251147302033973 6.59592322045135 3.2624598438606833 -3 -1 0
1557 0 2 0 11.505206812634203 1.3029279266812874 3.7744357757055518 -1 1 0
591 0 2 0 8.798714935073297 0.6313194272753 13.609642509893499 1 0 0
1605 0 2 0 1.2597546263145596 0.8637799677098066 13.0045920170059 0 -2 0
435 0 2 0 2.500384432437686 17.055119230036855 11.169675457097249 -2 -4 0
2259 0 2 0 9.694167646072396 -2.2118939050021513 12.925250572099426 0 -3 0
1267 0 1 0 -0.6856531078130403 5.820817277269723 3.6620231625671806 0 -1 0
936 0 2 0 -7.522283173951679 17.683763848230022 8.28652171106925 0 -3 0
1200 0 2 0 -1.5269465273867775 1.4947569413584847 10.44794638269571 -1 0 0
786 0 2 0 8.539520429970867 9.49077329317555 14.280550368848443 1 -1 0
873 0 2 0 8.156270686518981 3.388244693894501 1.4255776750957097 1 1 0
222 0 2 0 9.116388728803857 -0.40972587489054635 4.589720343907694 1 0 0
837 0 2 0 2.8609644762298125 18.783741458649494 6.6259881644620835 -1 1 0
992 0 2 0 0.3403106645978514 14.409753862878691 15.629706881717508 0 -2 1
180 0 2 0 0.3762177688968955 19.506168673428252 1.2646512538147845 -1 -2 0
495 0 2 0 2.4260036030169196 15.696104461640767 13.340819360696687 1 1 0
636 0 2 0 -1.5701751115699099 10.46026309746718 7.008729225516998 0 -5 0
566 0 2 0 6.979502015470701 4.624114242476347 8.605350407380744 -1 -2 0
522 0 2 0 5.441893223750288 12.096613398564893 4.440022445116599 0 2 0
1244 0 2 0 1.7528271462465834 6.84317874481769 12.14085936177415 -1 1 0
780 0 2 0 11.355125574612936 -4.861777169420061 15.273082640932122 1 3 0
921 0 2 0 1.6386078822842305 3.684317260852547 5.291809135102584 0 -2 0
635 0 2 0 -0.14357440557124593 10.518859626241461 7.67675434110965 0 -5 0
423 0 2 0 11.082819784872017 0.6105576431927581 -0.5236853233455687 3 1 0
647 0 2 0 7.392547032176217 0.7576400173871967 1.7441841169054908 -1 2 0
1147 0 1 0 4.631220915379765 14.976381812335674 11.273639252065625 0 -1 0
735 0 2 0 -6.01935460741288 15.050271608243865 4.984540135855077 0 -4 0
194 0 2 0 2.9161751562315255 11.855043364366676 11.351915903636167 -1 3 0
284 0 2 0 -7.340658295356841 16.004976100694197 11.967855160119884 0 1 0
765 0 2 0 2.69678140500808 0.8652716751862535 15.435550938268202 -2 -1 0
404 0 2 0 4.081473281723664 1.0469750683019212 4.301039438166898 1 2 0
1149 0 2 0 5.145849686555377 14.598154941211707 11.993857249603188 0 -1 0