LAMMPS data file via write_data, version 23 Jun 2022, timestep = 137507000

2592 atoms
2 atom types

0 31.128 xlo xhi
0 21.465467 ylo yhi
-0.8943693563910529 32.59943624901233 zlo zhi
-9.18238 0.7894443215789764 -11.2464376823228 xy xz yz

Masses

1 1.008
2 15.999

Atoms # full

2329 0 1 0 4.063420774621436 1.5339100428694903 7.554211156950744 0 1 0
1341 0 2 0 -1.3197449470919997 12.43904803147031 1.573648436537053 -1 0 0
1084 0 1 0 6.243226005441715 8.517535460888759 14.727228949367184 -2 -2 0
33 0 2 0 3.7482727341498525 8.368086168065615 0.625293878094977 1 1 0
883 0 1 0 5.026973860623531 -0.9819970540452228 8.351378753804223 -1 1 0
508 0 1 0 13.459014329004544 3.834659713941081 -0.48030284235229326 -1 -2 0
1103 0 2 0 11.489472475433793 2.86087887922448 5.244576288083962 1 2 0
71 0 2 0 2.6914272664980294 0.8474082986206755 -0.16225070069903402 3 1 0
566 0 2 0 -3.9263491764036105 16.8844874092506 11.375596533051755 0 -2 0
604 0 1 0 -4.077348475387567 15.049550854444911 -0.41773775448474587 1 1 0
235 0 1 0 4.067153662620156 2.8779866634833065 13.755517564841796 0 0 0
326 0 2 0 7.2882900526597885 17.962886837514937 2.849387151421088 0 -2 0
855 0 2 0 -2.896096601128657 14.027368433860818 2.0076692866336394 1 0 0
211 0 1 0 11.05243347417281 4.394196653864652 5.858464435512792 0 1 0
1483 0 1 0 1.861733813686391 4.4159472254015215 10.944107451610405 0 0 0
1274 0 2 0 11.964561327171493 -0.4265701180498791 9.596027273495567 2 1 0
1080 0 2 0 -4.574181162627679 12.089812513411774 -0.4601684086765876 2 -1 0
381 0 2 0 10.00287780460676 1.309412489790251 6.499602013318323 0 0 0
1216 0 1 0 4.039144388203675 5.162145567854756 0.4250005799588563 1 0 0
1218 0 2 0 4.164734860039948 6.061220774745835 0.783179339343586 1 0 1
779 0 2 0 9.894312827734446 -5.219011063826086 14.843284459448311 1 3 0
249 0 2 0 5.381018235233231 5.863475614993312 15.255791746565109 2 3 0
796 0 1 0 11.577766621432147 2.6732408790849504 13.957307959878047 1 1 0
966 0 2 0 1.9758338716711685 8.540650037087122 0.9861070719668314 1 0 0
872 0 2 0 6.5001764370448685 7.8884250692028735 2.7056679609150254 0 0 0
360 0 2 0 2.712119418421573 10.376376753724102 10.865094686872906 1 1 0
598 0 1 0 12.894331371360792 -1.733948081777517 13.91543607279274 2 0 0
919 0 1 0 -0.09341734135181187 1.1723937334383223 1.2811621445520296 0 -2 0
1214 0 2 0 4.243528482832066 16.331637444052667 11.21162193779684 -1 -4 0
237 0 2 0 4.879493270015629 2.52833947580572 13.486428552736337 0 0 0
981 0 2 0 8.34327055103487 9.85289507243862 2.969251920063789 1 1 0
637 0 1 0 -4.5691709601706725 14.216919926600891 4.3869352801379184 1 4 0
463 0 1 0 0.8839060483453827 10.178332645916203 13.56305928797566 -3 -3 0
817 0 1 0 2.2276391766365498 -2.2425349286131215 11.386521272651821 0 3 0
2294 0 2 0 8.951106520338259 -1.3352311477310552 15.460047961965117 2 1 1
288 0 2 0 5.456130477496919 9.167448992850835 8.139506362269563 -1 -1 0
586 0 1 0 -1.2221404403074592 18.410163102758716 4.606249156484921 0 -2 0
1295 0 2 0 2.458684786180096 7.505985432542371 10.449531998251832 2 2 0
335 0 2 0 5.857672859046697 6.349167977959198 4.327057808201399 -1 -1 0
239 0 2 0 -4.220186539128539 10.566733411682858 10.771233034597154 -2 -4 0
380 0 2 0 10.488900649439637 0.34723120480621716 7.423803733754294 0 0 0
984 0 2 0 9.826498270707493 6.358052208133497 9.94091569976044 3 2 0
1193 0 2 0 8.576106601369856 10.44755073627069 15.594577137395532 -1 -2 0
1108 0 1 0 7.800374065836843 16.420948359899064 3.9069082959890524 1 -4 0
670 0 1 0 1.564138650480772 17.024456076437087 5.473446311513558 1 1 0
2222 0 2 0 7.112859854356674 7.608386904814328 9.841615226883203 2 2 0
694 0 1 0 -2.403118424836756 15.881488654181565 2.6526493644841134 -1 0 0
1485 0 2 0 1.0713389928776886 4.815776982006661 10.651132111856542 0 0 0
241 0 1 0 1.6537803611666644 13.03082678915786 1.6410053743344752 1 0 0
1207 0 1 0 4.488880943166483 16.3261740310454 2.478277656936861 -1 -1 0
413 0 2 0 3.5753604408743977 -0.3756834516833487 3.4671309134627073 2 2 0
107 0 2 0 0.7201555951415373 3.0658901529177314 1.2605242678889828 2 2 0
1251 0 2 0 1.8192695464537318 10.904428936009886 4.4856222184019625 0 -1 0
1272 0 2 0 0.9625407551555296 9.482863627989445 2.95117938078511 1 -1 0
96 0 2 0 4.340939351826411 -4.805559689461828 14.929361506748595 2 3 0
550 0 1 0 4.474923046019565 19.546363435408583 0.8583482331555685 -1 -2 0
543 0 2 0 4.591508947613204 0.04413187586707146 10.174038050381073 3 2 0
957 0 2 0 -3.101960012314091 9.63876910852019 15.08921979216343 -1 -1 0
514 0 1 0 0.9242915002067911 17.880315083467224 8.398550130650674 -1 2 0
1006 0 1 0 2.154236367306912 10.65921343458307 8.855752088637209 1 3 0
368 0 2 0 -7.141806143016968 16.09944347575974 12.328909111254312 2 -2 0
20 0 2 0 -1.8078977614828133 4.499197608835038 3.2046336866947334 1 3 0
535 0 1 0 -1.8390602625991068 2.1354650284573715 11.841530722600472 2 2 0
1019 0 2 0 -0.13870388408527587 9.121809687148513 7.314941412619085 1 1 0
997 0 1 0 6.642416435230846 -0.7093732655932379 5.734276929380696 0 1 0
1286 0 2 0 -2.0784000270062304 5.048906223886113 0.8292365433045847 1 0 0
1188 0 2 0 -2.5972809648148862 6.146425345879738 14.837820178708114 1 -1 0
746 0 2 0 -6.7319943768754475 13.067487908321928 9.579511153875668 0 -1 0
2330 0 2 0 3.2875104903734074 2.0813532461827697 7.564529158552416 0 1 0
515 0 2 0 1.4582613159906541 17.58435855471393 9.126336980634777 -1 2 0
117 0 2 0 6.726889222524668 2.3018422444935362 15.29311115526665 1 -1 0
1269 0 2 0 -2.8919358350458206 6.738290503018674 12.78669907428861 0 -1 0
299 0 2 0 6.097425169876563 13.129494915128932 1.074787195988825 -1 0 0
873 0 2 0 6.858388482906529 8.494506550143292 4.068477213811797 0 0 0
48 0 2 0 1.213202667896367 6.266349032385784 8.885040939174985 0 0 0
2257 0 1 0 6.944744740530986 4.4072140625124865 2.964092207079971 0 -3 0
1133 0 2 0 7.8351634796404275 11.587831688447354 1.2139563227280878 1 1 0
128 0 2 0 4.99296772399525 2.0172809124213127 0.2982284976917635 1 1 0
1279 0 1 0 -1.3453374362613582 7.7652652028034055 -0.6387394118980116 -2 -1 0
760 0 1 0 10.675065793270104 5.108025525002133 0.7923936394198743 -3 1 0
2223 0 2 0 6.251596164008817 7.856847795430176 10.994095665927988 2 2 0
519 0 2 0 6.858367078001659 17.546027216067206 -0.31453442293946055 1 -2 0
59 0 2 0 10.19401965140462 7.9237128059289805 6.871030055828867 0 -1 0
907 0 1 0 7.266819211358891 -4.659598909509846 13.177290043814029 -2 -3 0
328 0 1 0 5.7474881515218215 0.6263869118698384 15.312166665425007 0 1 0
220 0 1 0 0.6416602443015769 6.534212568229028 0.9215320332981018 1 -1 0
2509 0 1 0 -0.6481635016557022 14.83708674725944 4.393779102099721 0 -1 0
266 0 2 0 9.674146329336594 7.956433731557328 15.319750424388385 0 0 0
418 0 1 0 -3.5563713037690263 10.625925644959366 6.947337536821912 0 1 0
955 0 1 0 -3.9221882156725583 10.045663581248615 15.409902280312473 -1 -1 0
401 0 2 0 5.07207648137219 2.773725249734496 4.394182007290349 -1 -1 0
823 0 1 0 8.567567178224516 7.163884065371452 5.961775807243479 0 -1 0
1050 0 2 0 -1.5463732131122345 2.6986851301415227 8.171455001714584 0 2 0
329 0 2 0 6.492535260962847 0.022063018322675987 15.436255909912873 0 1 0
655 0 1 0 -0.5110448179266546 13.430883579299014 8.321511230326985 1 0 0
1107 0 2 0 -4.419687890703211 19.98581632864297 1.3735334426619148 1 -2 0
976 0 1 0 6.703101085044961 15.031482366409325 10.360490599629813 0 1 0
934 0 1 0 -4.355379444992143 15.655010324250025 7.965814324876794 0 -2 0
876 0 2 0 9.085833058716943 -2.218295174290845 11.085704529115004 -1 -1 0
792 0 2 0 -0.8073087158048691 4.944180841363741 12.195694386037436 0 1 0
932 0 2 0 -0.8598379775399801 10.63680541069429 9.06048361627609 2 0 0
116 0 2 0 8.26640867452339 2.5168504350412517 15.431745206707852 1 -1 0
702 0 2 0 8.193390172960703 4.818858461651242 7.506700286435857 -1 1 0
936 0 2 0 -3.7172262822347943 15.669339984148811 7.2563556128178135 0 -2 0
118 0 1 0 3.529436158020141 15.00932355885625 -0.7324833868087496 -1 2 0
174 0 2 0 1.4086510642165861 -2.5179772945079417 9.793462092363496 0 0 0
1051 0 1 0 14.914894727061652 -2.5653088664170416 9.117699988914618 -1 -3 0
221 0 2 0 0.7842428856916299 5.610417981383985 0.7191430907474783 1 -1 0
987 0 2 0 7.26442474203754 -0.006070550160751864 1.9226121910127936 3 3 0
46 0 1 0 0.5137529594377342 5.632635773147435 8.660521769585621 0 0 0
828 0 2 0 13.53002752325112 2.189748115904268 -0.23394275438597767 -2 -1 0
477 0 2 0 -5.8524438405707695 18.0783942091576 6.862504214498032 1 -1 0
1145 0 2 0 -0.9462218976902685 8.29084223730231 15.521494210183569 1 0 0
652 0 1 0 1.3350535547471742 3.948303228445423 4.510581981031609 2 2 0
367 0 1 0 -7.856558107412166 16.595432309289475 11.875222212401832 2 -2 0
271 0 1 0 6.795109528475948 8.010435522165812 -0.4888325482285649 -1 0 0
38 0 2 0 -1.4741526667739269 14.412195850700424 9.350151227857449 0 1 0
761 0 2 0 9.847429436626047 5.549780668977312 0.9699130258229833 -3 1 0
775 0 1 0 6.278999785317953 2.973094056822657 8.230534765546166 1 -1 0
525 0 2 0 -0.7271889163998677 -1.0356399283326407 11.948993207771265 1 1 0
1296 0 2 0 3.353295235335596 7.285605830310931 9.223245523941449 1 2 0
722 0 2 0 -2.0564349912032083 17.31240309471216 7.7015123975864235 2 1 0
726 0 2 0 6.90951534713932 4.446904098244829 14.224246957708454 -1 -1 0
1157 0 2 0 -7.364544528272998 20.34703197649202 1.7076135691382284 2 3 0
710 0 2 0 -2.4121625210088813 8.332970889999856 3.6729290409765225 0 -1 0
414 0 2 0 3.6949650527100997 0.5955072357912345 2.2981148399466074 2 2 0
408 0 2 0 0.6027590668057969 1.249247471631373 8.35354942520534 1 0 0
17 0 2 0 1.7209323377447725 13.343773613186787 11.40160639340535 2 2 0
489 0 2 0 -4.237757547850029 7.4980197473442605 9.128740184570265 0 -2 0
742 0 1 0 13.301730941359981 -0.6846604193652119 7.981823779547462 -1 -1 0
1105 0 1 0 -4.003713924758127 19.078636296245993 1.3818993965925839 1 -2 0
339 0 2 0 13.186397546922242 0.19052696102746314 14.563199946256312 0 0 0
1128 0 2 0 8.30349302000336 1.8229104157850615 2.3194927523576894 0 0 0
562 0 1 0 9.048921218766411 10.653812495083352 7.45197543861711 1 -2 0
300 0 2 0 4.969402803433398 12.20976676053605 1.476477450940994 -1 0 0
131 0 2 0 10.311885196793924 1.822519478759431 14.83917590865329 2 2 0
199 0 1 0 -4.918425851450705 17.200980746688007 3.238308698887229 -1 -1 0
1045 0 1 0 11.216509299833772 5.103920426524596 12.57141249870059 0 -1 0
946 0 1 0 1.8729966812905412 13.23068660891832 15.566295311978305 2 -2 0
30 0 2 0 1.1501437952751865 1.218052426791706 10.780814662670796 1 3 0
878 0 2 0 0.8394655919480782 -1.4830526085232596 14.455083970106987 2 1 0
759 0 2 0 -2.0339559259125446 3.1776028078809757 5.399236409422397 0 -2 0
1604 0 2 0 -0.6046874835927083 1.0938478158668987 12.114594674880586 0 -2 0
1132 0 1 0 7.857003437240481 12.373720338493575 0.5945805672317637 1 1 0
918 0 2 0 9.264521277658488 7.534243057095556 2.542130422204812 0 -1 0
1239 0 2 0 0.2934129984716688 19.019531758997005 -0.8492806004234265 1 1 0
1189 0 1 0 3.8919638977908795 -0.34896749504766245 5.097666302945362 -1 4 0
850 0 1 0 -2.4373844688632604 13.371620744269228 6.218594191772516 1 -1 0
778 0 1 0 10.556780575865737 -4.523477128507531 14.974335414224207 1 3 0
1166 0 2 0 -0.9335368100088735 6.309237935006502 10.322627956730738 0 -1 0
744 0 2 0 13.265246239219506 -1.0757147609236442 7.071711816248452 -1 -1 0
1254 0 2 0 11.400769229591127 3.275587405475352 8.739720519310758 -1 -2 0
400 0 1 0 5.631093909825105 2.641599722957412 5.170776854044173 -1 -1 0
432 0 2 0 6.879327018800059 -1.8428519198578686 11.769547749106204 0 3 0
704 0 2 0 -4.6692952896704325 11.496291563422941 14.28155308724983 0 -1 0
1228 0 1 0 2.3801998991268363 -4.214423949762912 15.089883786568194 0 -3 0
765 0 2 0 2.0933476740789105 0.959770873636705 15.278078487803942 -2 -1 0
865 0 1 0 -5.911829518948264 14.761479416480096 12.639938073089029 1 3 0
1261 0 1 0 4.36551018103928 10.670012683112828 2.151248526016897 2 1 0
274 0 1 0 -0.2804003537547966 -0.858200297866051 15.727174922867281 1 1 0
750 0 2 0 7.116937788999739 10.61828408992655 5.049299981349395 3 0 0
1281 0 2 0 -0.5709525201383994 7.351816917945345 -0.24867684457870376 -2 -1 0
472 0 1 0 3.5416229236839176 13.819330267529534 3.415187045174421 1 -1 0
700 0 1 0 8.284105702600337 4.4212876588314245 6.6084399934397515 -1 1 0
963 0 2 0 1.3262055153259755 1.0549120071470635 4.710937085858954 3 -1 0
58 0 1 0 11.005611892720147 8.234777323294015 7.229993106224624 0 -1 0
639 0 2 0 -3.899163721656967 14.133584400003109 5.077706109851334 1 4 0
1259 0 2 0 0.45610703576061296 7.994209290274425 10.958641724483787 2 0 0
923 0 2 0 9.855496320059924 -1.9124743717560349 13.366469953181966 1 -1 0
1605 0 2 0 0.7107803053608631 0.7902432767181065 12.994020152743449 0 -2 0
1156 0 1 0 -8.192554809670753 19.843095227949917 1.6292677743854287 2 3 0
505 0 1 0 9.359426042590052 -1.3951680929239876 6.824046596869633 0 2 0
931 0 1 0 -1.0266741303212819 11.253228748563549 9.784727349535089 2 0 0
8 0 2 0 5.253112496120313 10.822299297482067 11.240587862239908 -1 -2 0
259 0 1 0 2.255704204145904 3.6804014902158197 7.62123350498444 2 0 0
724 0 1 0 6.71832647314965 5.373941829515685 13.94570415806399 -1 -1 0
1025 0 2 0 1.189906228062352 20.48686925311362 0.9391706998235445 0 -1 0
1020 0 2 0 -0.14496819160598584 10.398035795619272 6.57736293398501 1 1 0
852 0 2 0 -1.8372407344218802 13.474955237363794 5.492120768321205 1 -1 0
336 0 2 0 4.4826673218699655 5.550320232855823 4.179174840407285 -1 -1 0
129 0 2 0 4.777791133002098 0.797533729147568 -0.6581443117243206 1 1 0
1042 0 1 0 -6.503879415525332 18.51993216112609 5.190050261823607 -1 0 0
818 0 2 0 3.131872559767352 -2.167666678404306 11.540403117133492 0 3 0
1260 0 2 0 0.8511227844067908 8.955382035685513 12.08071389195311 2 0 0
1093 0 1 0 -2.9637534464751614 8.255895891420401 8.459200620169524 -2 -1 0
781 0 1 0 6.1507048748352835 3.5960402820522734 0.3913332100127518 2 1 0
1263 0 2 0 4.644104315911397 9.784092828528136 1.8192990679012473 2 1 0
448 0 1 0 2.597723027491528 11.619624839542142 -0.4644897679470574 0 -1 0
824 0 2 0 8.839833164484341 7.174525543702488 5.037019942603733 0 -1 0
711 0 2 0 -1.0367460340831234 8.317846331646892 2.8720375588770293 0 -1 0
1060 0 1 0 1.5476618742091255 17.401197309876487 2.5291901860524995 0 -1 0
590 0 2 0 6.7371432503556985 3.6404022134173557 11.288729086128063 1 0 0
507 0 2 0 9.76048378577534 -1.9918290373131553 7.442660619661972 0 2 0
1219 0 1 0 12.105118733659397 7.536303368763381 0.5737897994955028 -1 0 0
885 0 2 0 4.533518895089461 -1.751380298174583 8.040878839734267 -1 1 0
449 0 2 0 2.6700126015774996 10.691834987309054 -0.21032932622549116 0 -1 0
450 0 2 0 2.4689070432875577 12.211370558374902 0.31425280201449546 0 -1 0
315 0 2 0 7.008906191397483 7.463307986929785 7.284431657516199 1 1 0
1287 0 2 0 -1.6121060272253773 4.357272270445519 -0.49550423941993516 1 0 0
962 0 2 0 1.896614413724021 2.3283871351661185 5.337973634333273 3 -1 0
1026 0 2 0 2.5517507653966405 19.972098059109154 1.0070690618089764 0 -1 0
671 0 2 0 1.2752329649384664 17.41179016062257 6.362428757371275 1 1 0
575 0 2 0 4.130574286203217 15.069219338623991 14.918711757146026 1 1 0
703 0 1 0 -4.585118463760625 12.422771727753117 14.057954517256542 0 -1 0
1340 0 2 0 0.20079947669027098 12.36722880865311 1.7316880706774134 -1 0 0
580 0 1 0 -1.1809108169955365 16.184934604540153 0.24387004919487465 -1 0 0
520 0 1 0 -6.246638692488521 15.368551485978635 1.4302732132565663 0 1 0
967 0 1 0 8.734110632481547 6.579094247400353 12.61876068445905 -1 -4 0
471 0 2 0 -2.9035333186264998 12.979252181040845 13.954269964677971 2 0 0
222 0 2 0 -0.020027008587120004 6.607950653199567 1.5769296414801044 1 -1 0
964 0 1 0 2.2840374274537165 8.961560826701772 0.20820302473140262 1 0 0
791 0 2 0 -1.1138368398956042 3.7911693364811248 11.146967756943045 0 1 0
1249 0 1 0 2.137672833448666 10.14626778884858 4.009276856577962 0 -1 0
2187 0 2 0 7.73823810054827 14.741657346333094 4.430760764984564 0 0 0
1033 0 1 0 13.145666026498825 1.0714824795566296 12.023528891356142 0 1 0
260 0 2 0 1.5106027108151334 4.029732974819359 8.163892707910547 2 0 0
522 0 2 0 -6.42973306786745 14.715533235431783 2.0628866568420654 0 1 0
470 0 2 0 -1.6602801522954072 13.832179490939053 14.120468638477917 2 0 0
900 0 2 0 4.648661086503016 17.636488669781826 5.507813056602211 0 1 0
695 0 2 0 -3.1475052051235943 16.53696876794877 2.6874191859212853 -1 0 0
1434 0 2 0 4.116752791275391 17.63240803735363 9.381314074565513 0 0 0
1013 0 2 0 5.7803708607739415 14.97310528524993 7.577364498803618 1 1 0
783 0 2 0 6.81145153289353 3.7419146472969333 -0.33271329447780895 2 1 0
790 0 1 0 -0.8119706275434535 4.744675213249336 11.262087632217908 0 1 0
1224 0 2 0 4.807611451686682 13.242864992724815 8.46990080752837 -1 -2 0
709 0 1 0 -1.9044519721160245 7.858765839298847 2.9537365103127526 0 -1 0
1047 0 2 0 10.331849334975859 5.527919157972237 12.748202450833396 0 -1 0
430 0 1 0 6.631204055712023 -1.898820621886697 12.713511064656306 0 3 0
1146 0 2 0 -0.6703875824254129 9.205028606032126 14.30593653671949 1 0 0
961 0 1 0 1.8282733112368044 1.3886451177111487 5.507301397274157 3 -1 0
1221 0 2 0 11.487135564469716 8.224400700382173 0.32923858811980433 -1 0 0
565 0 1 0 4.617748162690459 -3.8445565324222617 11.307674518535444 0 -1 0
653 0 2 0 1.6143075312108868 4.671929881692407 5.047908442697447 2 2 0
908 0 2 0 -1.1518658516698523 16.510668851633433 12.668022314257685 -2 -4 0
969 0 2 0 8.148744239722458 6.988657594214453 11.909297778431851 -1 -4 0
1165 0 1 0 -1.1649824381410059 7.24429618343175 10.282081138461184 0 -1 0
633 0 2 0 -2.9261390044916777 7.58499968197537 1.69209703105407 -1 -1 0
1291 0 1 0 -1.46968524730037 19.637772507130915 2.1055211779189724 2 0 0
1081 0 1 0 11.56539697173667 2.523013084859492 1.791522977462047 1 -1 0
935 0 2 0 -4.4548589969141865 14.679011850627914 8.167151670515452 0 -2 0
280 0 1 0 4.565399691244818 5.414353855938137 7.375098389751203 0 0 0
854 0 2 0 -3.396274392482626 13.756672108342386 0.7193211342741264 1 0 0
212 0 2 0 10.138344840157405 4.322355136707851 6.279847466509905 0 1 0
542 0 2 0 3.4670917816505487 1.0007019968245192 10.420327005500464 3 2 0
1134 0 2 0 8.5372344882148 13.009263037620157 0.8573636791636954 1 1 0
696 0 2 0 -2.0082198218439102 15.99393483487315 1.7650514413039575 -1 0 0
874 0 1 0 9.833032355832687 -2.578773834600357 11.615971989738238 -1 -1 0
826 0 1 0 13.431310499051836 1.2711059685913542 0.10366747852960967 -2 -2 0
1082 0 2 0 11.857233891469878 1.7076263877712452 1.3295795554311707 1 -2 0
1200 0 2 0 3.7059173642600096 -0.10192627298827261 12.520002969228711 -1 0 0
1183 0 1 0 9.588440241582907 8.981792608962866 -0.16335084144978007 -1 -1 0
194 0 2 0 -0.011825781478131014 11.917114607723201 11.262628180127319 -1 4 0
1008 0 2 0 3.009519692916366 10.378541481941053 8.358579625353375 1 3 0
1628 0 2 0 2.507330416361333 7.2887114528105945 6.010444743481794 0 -2 0
39 0 2 0 -2.4790595295515505 14.586433866758487 10.574207497817126 0 1 0
983 0 2 0 10.3734520138666 7.7323914915758545 10.573528735097847 3 2 0
2162 0 2 0 2.85749184069414 3.966675240440852 -0.7104344629547265 0 0 0
451 0 1 0 4.56637398335726 7.940549641865045 12.290542244455322 -1 1 0
1083 0 2 0 11.9167269477447 2.346793894810572 2.6587798503307467 1 -1 0
1627 0 1 0 1.9800048718023682 6.5819836076861975 5.628061342298944 0 -2 0
130 0 1 0 9.717113628206619 1.3027020235186368 15.41370724704031 2 2 0
564 0 2 0 8.69428130978581 11.567430964123792 7.379242726388265 1 -2 0
846 0 2 0 -3.2784000709197683 5.934487038794826 6.078466629929737 1 1 0
1339 0 1 0 -0.6298857437207382 11.821230473635124 1.6767068876523785 -1 0 0
34 0 1 0 1.3540802433124361 15.606551967372958 0.7146715227472906 2 -1 0
301 0 1 0 -0.4359497279750942 7.179274305218197 6.600683125724714 2 -1 0
1245 0 2 0 1.5529106546237172 7.052483277387759 12.73223413782133 -1 1 0
47 0 2 0 -0.04219545152993717 5.964611462086815 7.937040199835817 0 0 0
782 0 2 0 6.588498941326155 3.720798019510347 1.2016872367067628 2 1 0
589 0 1 0 6.548912322183244 4.391486417543497 10.656458510554748 1 0 0
330 0 2 0 5.155706434284577 0.2718454075333412 14.576498748679334 0 1 0
195 0 2 0 -0.6990339763412763 12.73292818593828 12.420593040081606 -1 4 0
1126 0 1 0 8.871820059167174 2.513377822011721 2.6802868160800726 0 0 0
764 0 2 0 2.6197339103166013 1.7723358464363441 14.07290957941611 -2 -1 0
434 0 2 0 5.257976927927804 11.28320312813865 3.9032562231911827 -2 -4 0
75 0 2 0 -8.100844936522796 19.192532563031314 0.006016855493336526 2 0 0
1282 0 1 0 -0.07402757754745529 -0.000769198446116448 3.70385731678903 0 1 0
431 0 2 0 5.6746966865302335 -1.8463293073195297 12.886662491294164 0 3 0
1007 0 2 0 1.4782467333190552 10.501467944068379 8.146925378654668 1 3 0
108 0 2 0 0.4256240127734684 4.037726531817054 2.3030015450315706 2 2 0
359 0 2 0 3.039828350736102 10.890442131028209 12.229164056962789 1 1 0
2510 0 2 0 0.1955950125804192 15.2864789641125 4.683941210545311 0 0 1
999 0 2 0 7.061534433470367 -1.5062580769567333 5.4067783384803825 0 1 0
2331 0 2 0 3.91486432545333 0.6787681859929804 7.921814629958227 0 1 0
866 0 2 0 -5.552307764957783 14.724133547063776 13.559922195643999 1 3 0
1284 0 2 0 -0.11972226122107807 0.432546459930244 2.857143786060638 0 1 0
376 0 1 0 6.426910204568723 12.304150298082657 13.559872679307238 0 -1 0
664 0 1 0 7.781713540227449 13.729312878447113 7.565273725586364 -1 -1 0
965 0 2 0 1.8680906575343776 8.450298530863872 -0.5204147883501986 1 0 0
383 0 2 0 -0.7433301848305685 4.253444196877736 14.3877442880397 0 -2 0
377 0 2 0 6.624026872753627 13.200276454278818 13.899248596667258 0 -1 0
2186 0 2 0 8.69097233250375 13.485046089283435 4.50606318291527 0 0 0
2221 0 1 0 7.183228428414918 7.749415026947398 10.811874381683056 2 2 0
705 0 2 0 -5.181161135253951 12.88337258276912 14.718652041123873 0 -1 0
985 0 1 0 7.390437553776328 0.8658821603262761 1.4618060229725534 3 3 0
445 0 1 0 4.505183415693237 5.144659730496369 12.516913477739243 0 -2 0
492 0 2 0 7.555607953231813 7.130956544453253 0.7802946670759991 1 -2 0
70 0 1 0 1.7888959572911245 0.7597186923677212 -0.5167725779772897 3 1 0
446 0 2 0 5.362484822180921 5.272976937577085 13.028058122688945 0 -2 0
382 0 1 0 -0.7266338645543188 5.1344225864119695 13.895926811697883 0 -2 0
1271 0 2 0 -0.21301671521558 9.912792747055873 2.0394438762217955 1 -1 0
240 0 2 0 -3.9799141610544484 12.175224396847021 10.619673975420302 -2 -4 0
930 0 2 0 8.009202931440864 13.636625684737549 10.663154877294055 1 0 0
261 0 2 0 2.9318434607284205 4.411685774592712 7.509868897115263 2 0 0
2306 0 2 0 -0.5496059193717938 10.914872379822576 -0.2349182486775151 0 0 0
801 0 2 0 8.679517033692527 0.4712401491556024 14.226037019682508 -1 -1 0
1028 0 2 0 10.259904435563476 0.8176382347446172 10.75899814442404 1 2 0
398 0 2 0 10.056365948149937 -1.1627652467706895 4.740263401648914 -1 2 0
851 0 2 0 -2.6627144266102265 12.463031656940316 6.2443894778115085 1 -1 0
1198 0 1 0 4.003407600915065 -0.4656438475012319 13.386383595325821 -1 0 0
378 0 2 0 6.469001387919167 12.365991660282342 12.626344794513896 0 -1 0
1027 0 1 0 9.439072380292215 1.2830243974636195 11.10233852415043 1 2 0
485 0 2 0 -7.985626596889122 14.407304878081415 15.35624405627945 1 1 0
2377 0 1 0 13.159701124817728 -1.7117759942396509 5.527059846341797 0 0 0
2451 0 2 0 -3.657998426469067 18.124183994606984 -0.09920799144899783 0 0 1
749 0 2 0 8.189260815230188 9.749063527274078 5.859396367329192 3 0 0
2259 0 2 0 7.792627998226475 3.9818090910727197 3.147949721169864 0 -3 0
871 0 1 0 6.163014345107037 7.992921740279209 3.623378275458972 0 0 0
506 0 2 0 8.412590919731501 -1.3049483839603018 6.898538871667495 0 2 0
1158 0 2 0 -8.104256323660097 19.057643134242173 2.203107860911085 2 3 0
719 0 2 0 8.857933836951197 1.2991788705800165 4.491314735681447 0 -1 0
977 0 2 0 6.810594433699147 15.677808831023956 9.671046400432337 0 1 0
676 0 1 0 6.633777224043994 16.02604305000485 0.30732711026212156 -1 -1 0
1102 0 1 0 11.973843098392987 2.2353406724275775 4.717653536758218 1 2 0
32 0 2 0 5.220422352972648 8.009503281948856 0.43392262521277525 1 1 0
103 0 1 0 3.8930806151732 8.631773445579345 5.305159992661965 0 -2 0
1062 0 2 0 1.8457632728626105 17.356123020837618 3.4242322847665614 0 -1 0
638 0 2 0 -4.529943331952509 15.17567654247358 4.229581863353363 1 4 0
516 0 2 0 0.040551285335816395 17.517151959330388 8.546701040399684 0 2 1
1086 0 2 0 6.6652957815118095 8.057445244941274 15.4339066131223 -2 -2 0
95 0 2 0 5.602781197404643 -4.976842941982808 14.105313649366646 2 3 0
203 0 2 0 -7.54444642290878 15.629961547929732 7.562799813427869 -1 0 0
1094 0 2 0 -2.2619003646780005 7.8116120543287355 9.026540554175906 -2 -1 0
1204 0 1 0 7.713457489497053 0.3830570630732857 8.733416297627251 0 -2 0
576 0 2 0 4.143804341253694 15.899589264678024 13.597822027738493 1 1 0
725 0 2 0 7.481910647119719 5.605274271450561 13.374168541952969 -1 -1 0
721 0 1 0 -1.686186396741075 17.492648471398553 8.572442567751787 2 1 0
334 0 1 0 5.314696533407406 5.610438638842122 4.650966172658518 -1 -1 0
657 0 2 0 -0.7731942256128616 12.613171556070615 8.880491478160227 1 0 0
493 0 1 0 3.5777960286969317 11.978195434900414 13.850505293088949 1 1 0
1238 0 2 0 -0.7666106996131203 18.015631426981354 -0.4548758508818319 1 1 0
723 0 2 0 -1.9159399196181297 16.746849320750762 9.118153557635178 2 1 0
1223 0 2 0 6.31822859295937 12.987451467370487 8.443034117564762 -1 -2 0
1104 0 2 0 11.784631193703532 1.4095170659524898 5.172050223447374 1 2 0
728 0 2 0 7.163216195225149 -2.539079906467923 9.637489843948817 -1 -2 0
574 0 1 0 3.990154446957147 15.942707926606875 14.540745321030816 1 1 0
1106 0 2 0 -4.48940120509121 18.62258884418645 2.1209169324510615 1 -2 0
447 0 2 0 4.295501986560814 6.033661671516401 12.291553516339393 0 -2 0
1268 0 2 0 -2.005461666637682 7.894153127190991 13.52962534944073 0 -1 0
67 0 1 0 8.692999740219214 5.384168220601778 9.21937032524016 0 -1 0
701 0 2 0 7.55238261659913 3.720981715946334 6.648729814379395 -1 1 0
1213 0 1 0 4.384071259482397 15.49913519569817 11.72432398403558 -1 -4 0
956 0 2 0 -4.53998709899703 9.243636848625925 15.442937292322974 -1 0 0
518 0 2 0 7.1694747462079205 18.78232203877492 0.5366007110791884 1 -2 0
1237 0 1 0 -0.6061421498649529 18.98760905530486 -0.4560567899384064 1 1 0
1044 0 2 0 -7.512733689599152 18.335447999208167 5.266912537654936 0 0 0
1229 0 2 0 1.6495482078961285 -4.862049059061245 15.161024777896547 0 -3 0
1164 0 2 0 10.094469635087917 3.048446946874335 10.744796420267615 1 0 0
732 0 2 0 4.084435914037808 3.054054880653376 15.518881556798828 0 -1 0
868 0 1 0 2.3386130976554607 13.469459523671947 8.495739197185825 1 1 0
909 0 2 0 6.9925401074877875 -3.7589535844189026 12.945321915087085 -2 -3 0
322 0 1 0 8.496339362981635 10.508870931212691 10.217703881328687 2 2 0
1208 0 2 0 3.8003516754629683 16.935887004068483 2.1949620478812206 -1 -1 0
397 0 1 0 10.800538632782976 -0.8016656077993362 4.33030284176737 -1 2 0
1292 0 2 0 -0.891045983284306 19.347396016835127 1.3801511408484397 2 0 0
1144 0 1 0 -1.3984741703896266 8.80895576982029 14.849818227364745 1 0 0
201 0 2 0 -5.529504639643819 17.64811797375324 3.857611487011366 -1 -1 1
1294 0 1 0 2.768073155982356 6.8444321394879655 9.809961836546128 1 2 0
419 0 2 0 -3.257539383766839 10.151856270238014 7.786316488451677 0 1 0
567 0 2 0 -5.073718763557987 17.435053808487652 10.49449836409425 0 -2 0
1275 0 2 0 11.13572809995557 -1.311951386033971 10.684159650256163 2 1 0
122 0 2 0 2.8893092358273273 12.709403630293313 6.5801071990097935 0 -1 0
133 0 1 0 2.975141668278594 6.182889019126523 3.111771544531047 0 1 0
1293 0 2 0 -2.3589243998202933 19.247879340499406 1.890231268808408 2 0 0
611 0 2 0 14.193794320818792 -4.122171835060619 15.420390163542383 0 1 0
1262 0 2 0 3.4740381647514673 10.550302605187412 2.477575849612387 2 1 0
102 0 2 0 -1.1916649966246815 1.8362255243360197 14.938395475800917 3 1 0
1034 0 2 0 12.648182332824042 0.3981618889415257 11.529943797454187 0 1 0
591 0 2 0 5.776023824115625 4.773511067998649 11.155853716029329 1 0 0
21 0 2 0 -1.9108803213228853 6.005044504963552 3.084727268942103 1 3 0
1484 0 2 0 2.5670583565234004 4.897744849708284 10.531125808779844 0 0 0
626 0 2 0 2.601157857997587 2.9793866780750458 3.204588528068016 3 0 0
1186 0 1 0 -3.224320445718433 6.077283653845331 15.531293742601846 1 -1 0
36 0 2 0 2.0484460782613425 15.573623437223475 0.08173443256715585 2 0 0
1167 0 2 0 -1.5128610549655002 7.458099846326909 11.181765348849934 0 -1 0
884 0 2 0 5.797375393133615 -0.8455008630171785 7.7548645332070105 -1 1 0
178 0 1 0 -0.3363917040916433 12.007084927035358 4.753541099345989 0 0 0
127 0 1 0 4.617972965409138 1.1265505082266456 0.24489689191054476 1 1 0
2378 0 2 0 12.257841722220615 -1.4854696590438867 5.287387626301814 0 0 0
104 0 2 0 4.747402793282941 8.493438309628788 4.876182988192321 0 -2 0
69 0 2 0 9.145354289051697 4.575738710222474 9.39328375436321 0 0 0
495 0 2 0 3.2111243953370354 12.797429904247984 14.172577157754096 1 1 0
917 0 2 0 10.06657594673966 8.578699576678856 3.4027745413562123 0 -1 0
123 0 2 0 3.76648664622083 11.886187128545876 5.62128376666444 0 -1 0
986 0 2 0 6.577631469539961 1.018867867100958 0.9757059559949517 3 3 0
1244 0 2 0 1.9243787542112925 5.593376667195772 12.454447115030288 -1 1 0
827 0 2 0 14.104564600130844 1.1078925161098747 0.777148457922795 -2 -2 0
980 0 2 0 8.621180029946059 9.40569461654835 1.540847552628143 1 1 0
1005 0 2 0 8.824765086879626 0.5871814580208121 0.11754412967673367 0 0 0
459 0 2 0 13.496637946855387 2.499153169154852 5.401071052632168 -1 -1 0
433 0 1 0 5.4892671023628585 11.586873260788195 4.80248135475871 -2 -4 0
656 0 2 0 -1.0907421219076512 13.384250516692058 7.539836774532393 1 0 0
314 0 2 0 5.732741895537938 6.6987559363685785 7.857085060527112 1 1 0
677 0 2 0 6.145607079057006 16.048022013115656 1.1458295182703124 -1 -1 0
869 0 2 0 2.1610184112621917 12.547113005724345 8.683815615124017 1 1 0
1127 0 2 0 9.836785703297542 2.3794993110034413 2.5703837004606047 0 0 0
1199 0 2 0 3.218033755063608 -1.0226798402535673 13.675899790767051 -1 0 0