LAMMPS data file via write_data, version 23 Jun 2022, timestep = 179445000

2592 atoms
2 atom types

0 31.128 xlo xhi
0 21.465467 ylo yhi
-0.8402997692610832 32.54536660758386 zlo zhi
-9.18238 0.7868954963410246 -11.21012707318215 xy xz yz

Masses

1 1.008
2 15.999

Atoms # full

636 0 2 0 7.229179691483978 15.229301481166935 0.3513334023344794 0 -4 0
398 0 2 0 -1.5551304141462938 17.962897705624897 8.047013998132655 -1 1 0
276 0 2 0 -0.0287182764430034 -2.011713956616827 15.247191305988881 1 1 0
1271 0 2 0 3.78480623974896 14.563402246428433 3.5022925881947753 1 0 0
1173 0 2 0 -0.9207738672667487 16.52815793536338 11.855488339662044 -1 2 0
683 0 2 0 6.367577362384737 10.425693808483995 -0.6999857778340719 -2 -2 0
1129 0 1 0 -1.6811667331377598 15.43470578916969 0.38067713523687896 0 0 0
108 0 2 0 4.117054383557545 18.330344561735313 1.209476333324254 2 2 0
530 0 2 0 1.3595467900854625 17.151635172207783 9.11305156422955 0 1 0
780 0 2 0 1.2019010730401307 16.155819010805175 14.97097617707535 1 2 0
235 0 1 0 3.006603972105681 2.5559243108269145 13.57550396542414 0 0 0
570 0 2 0 6.444307774276265 12.128989966808579 12.394790083337893 0 1 0
507 0 2 0 2.8450156955913326 6.1623649082651655 8.828987841841938 0 2 0
1226 0 2 0 0.45431623880003585 7.037652721825083 5.877340624258156 0 1 0
176 0 2 0 4.824492000227848 17.47602615392945 10.311734359050348 -2 -1 0
100 0 1 0 -1.7427515116128047 2.3016229240524746 15.424958058627052 3 1 0
875 0 2 0 12.686265060096297 -2.0060208734550433 11.82141097270228 -1 -1 0
1196 0 2 0 9.34916344248561 12.286931927125936 5.8232933042546895 1 1 0
669 0 2 0 3.341422967593717 11.158715904580351 4.78702482362486 1 0 0
1217 0 2 0 2.346187519866855 3.744133803683633 12.351667794054308 1 0 0
960 0 2 0 8.729788397337483 1.6819753818464012 11.360061716520407 -1 0 0
1557 0 2 0 -4.909396298485132 11.187840149131805 4.198423114258188 0 1 0
145 0 1 0 9.987035529223323 11.19652230825408 -0.3085135750621838 -1 -1 0
536 0 2 0 6.403213269650539 8.551200460196558 14.168074008327633 1 0 0
785 0 2 0 8.810646478535022 7.324434455917647 15.808800489819816 1 -1 0
922 0 1 0 0.6759293806439617 -0.1661901967120767 7.666582803977532 1 -1 0
1166 0 2 0 1.568194175978372 -2.120728161712629 13.836165913363914 1 -2 0
141 0 2 0 10.821605033124973 2.927538278573235 15.624124134047296 -1 -1 0
992 0 2 0 -0.5021612367006791 13.430508456542018 15.496970882124394 0 -2 1
1080 0 2 0 10.971641564861025 5.412692648795452 12.406903861929887 3 0 0
552 0 2 0 -2.122631515583034 16.412034416762182 13.61370769951898 0 -2 0
641 0 2 0 5.095011493765411 7.120689500843653 11.653283015083616 0 0 0
463 0 1 0 0.09380703463168316 9.538174493892797 13.578071391713879 -3 -3 0
662 0 2 0 4.470463476661897 1.6801373125820462 8.592006524108125 1 4 0
565 0 1 0 5.336204201818299 11.90033274315794 4.910688808267267 -1 -2 0
546 0 2 0 -4.444598892597317 13.323500368969784 -0.10780561103529307 0 0 0
2293 0 1 0 6.8881046053478014 -1.7143211549955026 15.693805664885979 2 1 0
1248 0 2 0 -3.7298101509544868 17.732696425946024 2.1418549074488085 -2 -3 0
1115 0 2 0 -3.2294721126771693 12.42469577612414 4.930967735843583 -1 -2 0
172 0 1 0 2.8104934334773937 9.077249504596104 7.498653139548871 1 1 0
811 0 1 0 -3.6849159299519543 9.160606786769645 9.307924921068444 -4 -2 0
931 0 1 0 1.4487898205960852 4.005114681620111 6.561588611582908 2 1 0
1076 0 2 0 4.0665767446396055 8.732895937358238 15.174113470534333 2 1 0
14 0 2 0 9.079176292928324 4.758717073483185 4.9118296854091055 2 2 0
784 0 1 0 9.226778593655638 7.234470349858377 14.958380715120176 1 -1 0
741 0 2 0 8.696114924227551 13.60955287578742 1.2886943098049448 -2 -4 0
1171 0 1 0 -1.0164016886952605 15.574827997444789 12.08892232316692 -1 2 0
1119 0 2 0 -6.35843362175947 16.498091352957605 1.0992443646796164 0 1 0
635 0 2 0 6.215943481321431 15.043586175865805 -0.8117236044369268 0 -4 0
926 0 2 0 1.5277418335325945 11.479946787858315 6.047326891888499 -1 -1 0
767 0 2 0 -1.2574866968322498 0.6258185051732363 12.54253941860546 -1 0 0
1232 0 2 0 3.711541530523221 -0.6942757189731865 7.952925439011713 0 1 0
303 0 2 0 -1.3723839995248759 5.446692326358763 9.286094575707587 3 -2 0
299 0 2 0 12.875984166716195 4.807290330820234 2.9161312551669987 0 1 0
1264 0 1 0 6.901916738022343 0.18838791577627578 0.8702724165135418 2 3 0
1193 0 2 0 8.329790917293119 9.746184494645572 15.416618295618587 -1 -2 0
901 0 1 0 0.8819016635630821 13.150658809990862 3.496557392432348 2 1 0
663 0 2 0 3.114111045707959 1.1366881755761473 8.828014384247485 1 4 0
381 0 2 0 11.353503867123196 1.9321948794390522 3.6928372428010636 1 1 0
696 0 2 0 10.577282855372925 -0.5266499805073748 11.952766426629958 -1 0 0
950 0 2 0 1.4750683443939434 11.99133051817759 10.048996535898143 0 -3 0
445 0 1 0 12.385526069041918 1.470436317799587 0.2095340995803716 0 -2 0
1019 0 2 0 6.262063160170414 19.207514114058863 2.138610322996234 1 1 0
720 0 2 0 -1.256084098093185 18.577504309766983 0.4902109765849587 0 -1 0
998 0 2 0 5.754064133598214 4.017686851172953 11.988159597114791 0 1 0
397 0 1 0 -2.1635410476049266 18.01795330916106 8.773741326045222 -1 1 0
399 0 2 0 -3.012352019105938 17.718620391913774 8.399238892759977 -1 1 0
670 0 1 0 -1.0858358458764523 19.244881088848313 2.2232012199474815 1 1 0
1126 0 1 0 -6.099944436188553 20.139651596828426 1.2847071035912698 1 -1 0
642 0 2 0 6.067102833092285 6.650393677418908 10.456062547078679 0 0 0
298 0 1 0 12.131307099192199 4.6666163881927485 2.3301073883127614 0 1 0
721 0 1 0 -4.23497963572197 14.6653960390469 11.760710267848651 1 1 0
369 0 2 0 14.401528600191963 -1.8399635250102442 5.771500001665201 1 -1 0
2511 0 2 0 9.861855241629664 6.818748468947268 10.064301393225477 -1 -1 0
786 0 2 0 9.746383942693306 8.012345703121122 14.726334934524598 1 -1 0
825 0 2 0 8.702413995754204 -0.1142585325285963 7.9298137271517195 0 -2 0
29 0 2 0 -1.459403312927894 13.860105584067108 9.239402118457527 2 4 0
1216 0 1 0 2.254206169984765 4.518957567574256 11.75465781009864 1 0 0
1376 0 2 0 6.095305204057382 4.052431064594784 -0.7259152963775501 0 0 0
1105 0 1 0 8.114393229691506 4.286545062477781 3.224171201200866 0 -3 0
1116 0 2 0 -3.9167686989021924 13.559003140610216 4.2838638414843215 -1 -2 0
421 0 1 0 0.15964258759349398 9.343599902968581 8.780507273582694 3 1 0
253 0 1 0 0.8386259369026995 3.934496830818722 3.909171042372696 -2 0 0
907 0 1 0 4.746356661521542 12.616555719686707 7.615243646938778 -2 -3 0
1083 0 2 0 7.216292255470861 9.353110780313788 6.148580050513949 1 -1 0
958 0 1 0 9.105547844973584 0.7918931192584084 11.369852372397558 -1 0 0
1629 0 2 0 6.602415196295828 14.72987957102614 3.1768575290563827 0 -2 0
523 0 1 0 0.3843931241478519 14.08170108150169 0.9387248201918967 0 0 0
718 0 1 0 -1.304010112582527 18.217863599963245 -0.43050151059328556 0 -1 0
482 0 2 0 9.955518299379447 8.571074024814168 1.5156978257606601 -2 2 0
625 0 1 0 -5.165784816948916 13.371774178288849 9.533603998523054 3 1 0
1114 0 1 0 -3.355781043836226 13.390131032781875 5.089372760700395 -1 -2 0
1263 0 2 0 -2.3755217589436906 6.161557796403933 3.3894564117560178 2 1 0
2583 0 2 0 4.544993798909992 5.725683386602473 13.085751902480142 0 0 0
760 0 1 0 -3.7264417705741204 8.462739571599245 5.046281688354403 -3 2 0
247 0 1 0 -2.2210843113491823 7.8308143181894 7.167792371038221 2 3 0
1127 0 2 0 -6.732169107138161 20.71827907574559 0.8925700723609766 1 -1 0
835 0 1 0 -3.7800234743044636 19.12408478394113 1.011515100001155 -1 1 0
265 0 1 0 9.93169769906444 8.053830950939446 12.072081538245738 0 0 0
136 0 1 0 10.735005710511064 6.920015922643648 7.012115697860282 -2 -1 0
345 0 2 0 0.10362306449916056 16.75454888226229 2.8538933910950495 2 2 0
966 0 2 0 -5.558799581311124 11.99096911465083 14.509998106458085 1 -1 0
525 0 2 0 0.6076443281476942 13.887322879758193 1.8961873868326111 0 0 0
957 0 2 0 -4.335766202973049 10.131502926949402 14.816118089246732 -1 -1 0
1270 0 1 0 3.610481410357689 15.164848032120489 4.20518966297656 1 0 0
1154 0 2 0 -1.7371033693056577 2.271674119078007 5.91328214572619 0 -3 0
328 0 1 0 4.571041983656128 -0.07106978420287913 15.177233024326775 0 1 0
277 0 1 0 -2.9994576989782002 17.265261625181918 5.321154765911887 0 0 0
1296 0 2 0 -0.6881108994163745 7.786362910031836 9.654721168520556 2 3 0
777 0 2 0 2.1404189303894436 19.367784067206887 5.094037273865633 2 -1 0
1229 0 2 0 1.3878458791768558 -4.219164961651427 14.881360040323875 0 -3 0
1157 0 2 0 7.630557046352976 10.28953888872892 13.093670574454169 2 4 0
177 0 2 0 4.67084498152758 16.813351381971582 8.93512165058649 -2 -1 0
82 0 1 0 8.451324625521469 -3.4684596459418904 11.095233333072397 1 1 0
71 0 2 0 4.15901582518269 12.421374452240201 12.944083676239158 3 0 0
932 0 2 0 1.2067565226211798 3.7603374437241266 7.489613774551922 2 1 0
694 0 1 0 10.998609583728376 -1.2298927341473047 12.433955113677142 -1 0 0
379 0 1 0 11.093049906326454 1.616550274081887 2.7904727144190224 1 1 0
771 0 2 0 7.909408590663308 -0.9007743522401205 4.475966181209318 -2 2 0
566 0 2 0 5.954700157503607 11.337879368852429 5.347634612602234 -1 -2 0
524 0 2 0 -0.2980017859574082 14.799723089111913 0.8668863836868361 0 1 0
573 0 2 0 14.372824075288296 0.007706958777168982 2.0136003650605883 2 -3 0
726 0 2 0 5.794850346747193 3.579563820672398 14.267807081900681 -1 -1 0
925 0 1 0 0.9212860788202689 12.100761701909766 6.56035571632416 -1 -1 0
989 0 2 0 6.869160428198203 3.005776250115722 6.629835511352368 0 -1 0
96 0 2 0 -5.59133000236457 14.6125533911085 14.511794549188174 2 2 0
965 0 2 0 -4.059513838602947 12.10016499776977 13.96444198982415 1 -1 0
729 0 2 0 5.831764546617548 1.152852993808748 7.118316120762337 -1 0 0
1254 0 2 0 -0.21090899901394988 8.435947780637854 1.4750615205319293 -2 -3 0
1118 0 2 0 -5.887543661082479 15.28916216884815 0.1882798001284629 0 1 0
1167 0 2 0 0.3483674324687668 -2.976058106822091 13.299327934799468 1 -2 0
618 0 2 0 7.664517995048428 -1.5630841589833262 9.566240944646294 1 4 0
689 0 2 0 2.5819536140178627 3.961057163627711 1.461762828249857 -4 -1 0
344 0 2 0 -0.6493396282047369 15.992327005222936 3.9310712717886247 2 2 0
826 0 1 0 6.8025424779976955 10.212403520665031 1.1697814997598068 -2 -2 0
131 0 2 0 9.566069003929046 1.3306804266097254 14.245472198621977 2 2 0
968 0 2 0 -4.286493805766567 14.571576097769938 6.1902720372758235 -1 -4 0
1209 0 2 0 3.932897311407986 8.018300817179087 1.557287502798017 -1 -1 0
1294 0 1 0 -1.1688815337126865 7.071895050821134 10.056329430840302 2 3 0
646 0 1 0 4.669540992097652 9.434498866911918 2.5482918356511486 -1 1 0
765 0 2 0 0.20918444407623382 1.396605328753611 14.960068815885649 -2 -1 0
505 0 1 0 2.1334105133153436 6.796598996190831 8.97008710094392 0 2 0
1045 0 1 0 9.109966824913382 0.2814370637285827 -0.6932425839696776 0 -1 0
511 0 1 0 6.945535144113224 6.325200018762076 0.9534359027012225 0 -1 0
647 0 2 0 4.101646502134652 10.1948605079156 2.69535173140462 -1 1 0
147 0 2 0 9.961285610539942 11.704899821115577 0.5118060804760578 -1 -1 0
1627 0 1 0 6.83378724631649 13.853097207315074 3.474680794674458 0 -2 0
448 0 1 0 3.569651321464079 18.93675851465549 6.145271817322829 1 -1 0
67 0 1 0 3.1934302323610027 14.34776758686639 10.750267597830307 0 -2 0
569 0 2 0 7.890803830730684 12.540932563596328 12.060721503754285 0 1 0
761 0 2 0 -3.3298000307814055 8.478438145135444 5.948123798905011 -3 2 0
1004 0 2 0 3.979537715792862 12.585449314147292 2.120487812260541 0 -1 0
723 0 2 0 -4.568890357210169 14.461368411189255 10.904787170846316 1 1 0
192 0 2 0 -5.680903385006925 14.241284837399352 12.393905032978473 1 1 0
704 0 2 0 0.1283164182153117 12.40834712763916 12.751756174682967 0 -1 0
906 0 2 0 4.818594849451004 -3.416106420872927 11.488576140830807 2 1 0
2459 0 2 0 -1.2032481223785396 10.710107280664035 4.507383065775831 0 1 1
661 0 1 0 3.643751159118244 1.9078096364937047 9.024726186104196 1 4 0
1107 0 2 0 7.442186649615605 4.952022549283697 3.359089026310273 0 -3 0
378 0 2 0 7.201957507576956 13.42198563496118 14.940305592489862 0 -1 0
2221 0 1 0 1.8207102035228822 1.2046181150994708 5.454952647144029 3 2 0
999 0 2 0 6.925408934657263 3.8308443186141243 11.082784244448218 0 1 0
997 0 1 0 5.973471234480502 3.9300975072722917 11.079189164916734 0 1 0
817 0 1 0 6.919097080251269 6.326126116921041 5.1544122343149885 1 3 0
2386 0 1 0 0.1432027348285137 6.112818833391933 13.30064959891256 1 0 1
878 0 2 0 1.545749458827123 4.131452273511489 10.175234202842717 2 1 0
766 0 1 0 -0.45352191202466213 0.16431865826304293 12.325753762977351 -1 0 0
173 0 2 0 2.5553680035218327 8.260252865686466 7.97805206853003 1 1 0
1031 0 2 0 2.451235880969868 6.594605564622174 15.532486649591835 1 -2 0
1225 0 1 0 0.01975564681142658 6.532274033910445 6.623616590960151 0 1 0
13 0 1 0 9.546382335191781 4.662943754661374 5.724612191600197 2 2 0
2582 0 2 0 4.608566428327369 7.206780656828705 13.566357658519228 0 1 1
301 0 1 0 -1.3141952642211456 4.488018403671397 9.13725080410507 3 -2 0
423 0 2 0 -0.13246700719274315 10.06563561876106 9.342715728016259 3 1 0
921 0 2 0 -2.601210438881337 7.231664377079234 -0.2755086041245983 0 -2 0
724 0 1 0 5.605561747898572 4.411385980192609 13.76038524084735 -1 -1 0
695 0 2 0 10.292621159659955 -1.646074736652889 12.92929458027709 -1 0 0
1032 0 2 0 2.1327454951927365 8.083244931832407 15.409323447042187 1 -2 0
764 0 2 0 1.2782792943409242 0.36726181963181936 15.280412166991127 -2 -1 0
1433 0 2 0 -3.7517224925173056 18.936135367558318 5.648488327504167 0 -1 0
164 0 2 0 3.4712245930456556 15.88885423558332 14.209932277832031 0 0 0
611 0 2 0 14.500894612141428 -4.5190264223473 15.456826649420275 0 1 0
1092 0 2 0 1.9515066903177258 0.15528892602964728 10.81008830403745 -1 -1 0
1221 0 2 0 7.530137920321886 1.1109110202857246 2.3522365547477526 -2 0 0
1128 0 2 0 -6.651866590311091 19.408734634786295 1.6215975816312223 1 -1 0
1060 0 1 0 -1.6373939430273483 10.682400242817904 10.162157226090164 0 -1 0
550 0 1 0 6.215221448678106 -4.792486105459992 13.994150045091434 0 -1 0
150 0 2 0 13.896653740898424 -4.149727525368536 12.821907891750394 -1 1 0
2509 0 1 0 9.87275641525994 6.095525642447864 9.411833014063978 -1 -1 0
841 0 1 0 2.675801751515841 14.64320747251993 6.592750527560934 -1 2 0
1047 0 2 0 8.273612451164865 0.21805520303637618 -0.19372510755851968 0 -1 0
946 0 1 0 1.0660026655327453 12.387681808393445 15.634930514971423 2 -2 0
432 0 2 0 -8.109392005757392 18.478182691102724 7.218149778994238 1 2 0
479 0 2 0 0.4784225647981045 0.6150640954309239 9.09390920104659 0 0 1
282 0 2 0 11.986235286800682 2.6654972035335582 5.927304736637089 0 1 0
1183 0 1 0 4.395601284068086 4.837365013634194 9.009083381349207 -1 -1 0
979 0 1 0 6.600701777887608 15.260698770910206 11.658464475145772 1 1 0
1132 0 1 0 9.121250686871713 12.190404413165602 9.008676827640718 1 1 0
433 0 1 0 1.0443921267987322 7.96565859144528 4.55019513411992 -2 -3 0
933 0 2 0 2.429911793734241 4.137821567802996 6.5230092106159105 2 1 0
956 0 2 0 -3.4948122941033617 8.807173934750097 15.306849440365667 -1 0 0
1062 0 2 0 -1.874726329600722 11.425127314215175 9.518269744014376 0 -1 0
2223 0 2 0 2.634320080977741 0.9079195426311535 5.033051659461094 3 2 0
703 0 1 0 -0.6666558126230494 11.86450378562498 12.69777551582465 0 -1 0
872 0 2 0 -1.7930419557841746 3.832086159266 3.0018019771612385 1 0 0
1200 0 2 0 1.7826693898458827 10.379681227659233 -0.46700421353079863 -1 -1 0
843 0 2 0 1.966957407290409 15.03040760592776 7.120830727054544 -1 2 0
587 0 2 0 2.2761432412769853 5.414972067795089 3.748174393405627 0 -2 0
478 0 1 0 0.57654400091701 1.1464187836850668 9.905588425482595 0 0 1
791 0 2 0 1.3831182973455294 -1.9601515524940156 5.1242903852643025 0 0 0
2458 0 1 0 -0.9981074441813181 10.86025050101889 3.5776516966811673 0 1 1
270 0 2 0 1.9993293223776647 8.367786310205302 0.6926632972245559 1 0 0
163 0 1 0 2.7445158977431348 15.422239163532598 14.59333690260781 0 0 0
626 0 2 0 -5.6609483069675735 13.910177388156313 8.887824549805867 3 1 0
1246 0 1 0 -3.5216353723522342 16.894900082351803 2.605677738299332 -2 -3 0
640 0 1 0 5.9602484157906135 7.305461874981875 11.15948191865002 0 0 0
254 0 2 0 0.1404856588815557 4.451951496354901 3.458706862110003 -2 0 0
769 0 1 0 7.649432183742771 -0.14267157265192365 5.050552962387708 -2 2 0
1434 0 2 0 5.268930452307145 -1.038282441657265 6.383115681022363 0 0 0
28 0 1 0 -0.7580839164497643 14.417737200765558 9.630356027306188 2 4 0
280 0 1 0 11.789641896589774 3.1092265785393627 5.093771380645162 0 1 0
988 0 1 0 6.1782213051881385 2.6890694849566845 6.066116221879436 0 -1 0
279 0 2 0 -3.428927508842406 16.512655180668705 5.787870216146464 0 0 0
278 0 2 0 -3.1951396111556365 17.160819802199775 4.392454078967099 0 0 0
549 0 2 0 5.171315949263916 14.93760037582864 1.284968202054169 -3 -1 0
797 0 2 0 11.734464551383196 2.1279789910854845 13.110023001698728 1 1 0
132 0 2 0 9.430363063182098 0.2894824037812471 15.37074815495793 2 2 0
798 0 2 0 10.733857956585052 3.2881139597681273 13.066327405136612 1 1 0
1146 0 2 0 -1.6362588834907592 7.7176652769232605 14.64442031900608 1 0 0
107 0 2 0 3.3704040010738376 17.952889894908708 -0.09901696936087712 2 2 0
2294 0 2 0 7.3259497583497595 -1.9273129011629107 14.886567855518349 2 1 1
567 0 2 0 5.872743499375958 12.458545877250735 4.35696888542412 -1 -2 0
103 0 1 0 1.5118195919566828 20.14590762209948 1.664816791885809 0 -2 0
908 0 2 0 4.842278848763273 12.387211478663074 6.647450381673177 -2 -3 0
72 0 2 0 4.421052732592021 13.56699422144981 11.87136142139265 3 0 0
1188 0 2 0 -3.153034116795417 5.360231766350649 15.61877487619746 1 -1 0
168 0 2 0 4.246242890317758 5.189481242984282 7.074113393287102 0 -1 0
768 0 2 0 -0.011755942714281542 0.2189865921536711 13.156070953120324 -1 0 0
827 0 2 0 7.517605177234836 9.588410357966612 1.136077379848391 -2 -2 0
366 0 2 0 7.242944256037544 7.510770360723121 2.4516641840177855 1 3 0
541 0 1 0 8.749784744734743 8.831779048492399 0.27816052679715875 3 1 0
978 0 2 0 12.319173407763499 0.05007597047023116 3.3103205874397226 0 2 0
1063 0 1 0 -0.21943266993526606 5.2401812987588725 1.6265291650190123 3 1 0
812 0 2 0 -2.8868122626005603 9.592124879936268 9.645712663385872 -4 -2 0
497 0 2 0 6.077999240354785 17.161807479877773 2.703916337491738 0 -1 0
980 0 2 0 6.425035611784275 16.08045255766978 11.125398086900159 1 1 0
1005 0 2 0 2.6340476371845467 11.97281619696604 2.752600013762912 0 -1 0
842 0 2 0 2.9095626828030836 13.761817844153905 6.893532789142832 -1 2 0
752 0 2 0 6.04334403041236 8.89506754478709 10.45592520592248 0 2 0
1040 0 2 0 10.940608601492475 6.018114468210862 15.472641669259389 1 0 0
79 0 1 0 7.139217863462619 -0.0956864605051484 12.806739144854948 -1 0 0
685 0 1 0 2.695081256941721 14.428643732839957 -0.5691932067954988 -2 -5 0
284 0 2 0 2.4911800204627212 2.0977616223671376 2.7994955542396553 0 2 0
377 0 2 0 6.023618328023766 13.67293448404167 13.85472755884801 0 -1 0
823 0 1 0 9.233551742935177 0.27201483628262846 7.2090746303913065 0 -2 0
1185 0 2 0 4.91354216996418 4.64370504298075 9.820301127165273 -1 -1 0
1165 0 1 0 0.8252060998356394 -2.6583644167922587 14.129684955435623 1 -2 0
451 0 1 0 5.175783752530527 4.840388677323713 2.4207547963047977 -1 1 0
824 0 2 0 8.748400749970934 -0.031074661428648565 6.405807891603535 0 -2 0
535 0 1 0 5.809632602976947 7.9112769391778395 14.641090742707 1 0 0
249 0 2 0 -1.2804581667026647 7.428724698806797 7.149032646360208 2 3 0
97 0 1 0 4.850745340691645 16.361495331653007 7.0499102952663755 -1 -1 0
376 0 1 0 6.536935351611306 14.072836639258302 14.587629453572566 0 -1 0
1091 0 2 0 2.8687450222439232 -0.9791358822984817 10.12568947812141 -1 -1 0
1227 0 2 0 0.049759122145838414 5.625271619379784 6.342424712502142 0 1 0
981 0 2 0 7.560219109213107 15.191229293300054 11.631237668148021 1 1 0
1245 0 2 0 -2.125841560792985 13.661150829457096 14.254146504091148 -1 1 0
300 0 2 0 11.681903469794326 3.9703475909164623 2.7672266238663252 0 1 0
869 0 2 0 2.0074894024151253 10.942338522104958 11.998555847255915 1 1 0
781 0 1 0 -2.8133738634668917 12.73813188298723 8.701706486943475 2 3 0
137 0 2 0 10.219131564087599 6.800919143941753 7.846506575138854 -2 -1 0
1064 0 2 0 0.688200711813763 5.151345215554288 1.2926783844769658 3 1 0
879 0 2 0 0.9569492555488915 2.9246462859583655 9.658628516619148 2 1 0
289 0 1 0 4.586145845527332 8.15360222075811 5.282467430292671 1 -3 0
895 0 1 0 5.680375631067945 -2.364637113840166 12.838686334712008 2 1 0
1280 0 2 0 0.02697374523284138 15.520345080606292 8.45203362030872 0 0 0
1199 0 2 0 2.180244644252433 11.579197938079199 0.4604967231146406 -1 -1 0
90 0 2 0 9.34435133993407 3.9303705616266247 10.85149015855686 -2 -1 1
548 0 2 0 3.7907363452209646 14.386609538488006 1.0118446672116141 -3 -1 0
770 0 2 0 7.787307464406366 0.6200033149665893 4.494236180054928 -2 2 0
190 0 1 0 -6.515131998202352 14.261513977164453 12.962232384846537 1 1 0
939 0 2 0 8.860277329455954 3.3270264877904614 7.057919165084632 3 4 0
1279 0 1 0 0.662480043413355 15.973552028230259 7.919143470742215 -1 0 0
1015 0 1 0 11.934616499368571 7.729013100942255 -0.10986438600162862 1 0 0
129 0 2 0 8.960675239168282 11.914114624101252 2.607283810017841 1 0 0
446 0 2 0 13.224516247030913 1.225538149571845 0.522184221600436 0 -2 0
861 0 2 0 1.7391750855902839 7.4919490684631835 10.94526687757347 -2 -2 0
990 0 2 0 5.450604720818186 3.2967903601202844 6.235484885476578 0 -1 0
655 0 1 0 -4.566505252191323 7.585601629312529 11.628711028273548 1 0 0
383 0 2 0 -1.430503650140391 5.255167156054498 14.032760394784654 0 -2 0
481 0 1 0 10.476329089829477 8.436504686863024 2.3734771746879293 -2 2 0
899 0 2 0 -3.115258484118015 12.08103241724015 1.0828805225888731 0 1 0
1556 0 2 0 -4.063809494302275 11.088171879546104 2.922075172903303 0 1 0
705 0 2 0 -1.4374673856142977 12.399896295372715 12.938075210557711 0 -1 0
37 0 1 0 7.268555667538227 6.1048597084080445 8.527943060983562 -1 0 0
1233 0 2 0 2.1640837337351124 -0.887724556282754 7.970367937580386 0 1 0
1158 0 2 0 8.447589747187827 8.911369471296975 12.967807697881016 2 4 0
529 0 1 0 1.7247860083895603 17.80527490922104 9.678668848998948 0 1 0
652 0 1 0 11.433247375217002 -1.2682488465359274 8.424269473934483 1 2 0
382 0 1 0 -2.192879927899267 4.776378358246641 14.226071856492357 0 -2 0
782 0 2 0 -3.7222891187586793 12.885239968130655 9.036652749548555 2 3 0
2 0 2 0 3.873620340646757 -0.7906693059144501 2.880861126793825 2 5 0
862 0 1 0 -4.768217430994929 17.30838926647142 8.275128212725393 0 1 0
89 0 2 0 8.694094631712733 3.2852254605937965 9.406461198075531 -2 -1 1
1098 0 2 0 10.86422307202573 1.5175069025034764 9.798557153864811 0 2 0
985 0 1 0 4.00724748593915 10.684617354056863 9.502508516807387 2 3 0
2307 0 2 0 -4.370219856952615 15.131211406175074 2.7006611250379633 0 0 1
119 0 2 0 -2.776656259833481 8.499072884461157 12.546883744866754 -1 2 0
919 0 1 0 -1.6741922091573431 7.277045347852438 -0.4718663883510627 0 -2 0
402 0 2 0 5.928589745186112 13.468327334548086 8.781313029072528 -2 -2 0
818 0 2 0 7.369123673856396 6.944981209778765 4.540714397230868 1 3 0
722 0 2 0 -4.180446765699196 15.619004491469804 11.688498248203201 1 1 0
627 0 2 0 -5.721618564360376 12.608689323714563 9.696025305891952 3 1 0
1266 0 2 0 6.056086963410893 0.5325694750995347 0.5439289562114162 2 3 0
422 0 2 0 1.1236417450850644 9.469208516490244 8.611290061004569 3 1 0
1253 0 2 0 -1.3585763556897361 7.776355292125473 2.461432967805643 -2 -3 0
592 0 1 0 12.991282091287363 1.4235068980540229 12.131771839837825 1 2 0
964 0 1 0 -4.846807311371605 11.552901291911969 14.012757266404973 1 -1 0
290 0 2 0 5.375710012021667 7.59349802916039 5.3260269756990795 1 -3 0
1029 0 2 0 12.486654101801529 2.2601952284281026 8.397034454340332 1 1 0
457 0 1 0 2.0052683394073805 16.900699461810845 2.8756123600789407 -1 -2 0
1207 0 1 0 3.535549514417014 7.318881281511958 1.0240014744283639 -1 -1 0
2387 0 2 0 -0.004021608403945498 6.751761460509922 12.611148991840368 1 0 1
3 0 2 0 4.387305363851831 -0.9024671464416925 4.297307051044225 2 5 0
343 0 1 0 -0.8024437083554044 16.7067860280078 3.273609526070599 2 2 0
923 0 2 0 0.7873986239646452 0.370445407150759 6.884925516098074 1 -1 0
588 0 2 0 2.7535286486544703 6.921391193428098 3.9575964762507727 0 -2 0
1219 0 1 0 8.105520369500104 1.539611719623298 2.979098628008611 -2 0 0
1198 0 1 0 1.8459397842317846 11.353114201007884 -0.44675753565175985 -1 -1 0
531 0 2 0 2.6547192308289396 17.572181497215357 9.791305606123728 0 1 0
95 0 2 0 -4.30508620561559 15.481114723575448 14.696058473293744 2 2 0
2551 0 1 0 -5.091538777364981 10.856475549614423 7.328777582732458 1 1 1
127 0 1 0 8.117264436939697 12.184268262207295 2.1585122031869775 1 0 0
897 0 2 0 6.257565323947415 -1.6009325622321198 12.855012658999932 2 1 0
2460 0 2 0 -0.8780246189808509 9.96128647974455 3.234341676449791 0 1 1
725 0 2 0 6.4147668722619935 4.937514594490051 13.758636764328765 -1 -1 0
1090 0 1 0 2.7906783209675305 -0.41400861082137386 10.894055236526759 -1 -1 0
873 0 2 0 -1.9875262301422187 4.103038916369649 4.550219219553121 1 0 0
105 0 2 0 1.279133995961726 20.701876636924812 0.9226396460051411 0 -2 0
493 0 1 0 5.070351827656667 1.376256446155753 11.804131001902489 1 2 0
551 0 2 0 5.991213651984934 -3.954397493284847 13.56033231027298 0 -1 0
836 0 2 0 -3.729205540352215 18.436605057366073 0.35269775954622595 -1 1 0
690 0 2 0 2.9322005260995625 5.481178593248584 1.1786898620174635 -4 -1 0
1141 0 1 0 1.282573402155648 14.104579777423616 12.717675867487946 -2 2 0
83 0 2 0 7.785784115936536 -3.5578943284568436 10.389992610956272 1 1 0
1218 0 2 0 1.6964632730937208 5.086001401366228 12.233916931128205 1 0 1
778 0 1 0 9.437602245421273 -4.9954990675298285 15.078005742793536 1 3 0
1628 0 2 0 7.247156152980306 13.301489185923218 2.818362659485236 0 -2 0
449 0 2 0 12.353475229787824 -2.0055122983857645 6.808357551966773 1 0 0
458 0 2 0 2.4878207522856033 16.903350330415797 2.0706467588787887 -1 -2 0
728 0 2 0 6.459934984748267 0.1875235611688737 8.171890917403033 -1 0 0
870 0 2 0 1.8331891644407308 9.616120767423002 11.209292654458297 1 1 0
543 0 2 0 8.601177706120964 8.216641309519737 -0.44351386287375694 3 1 0
2257 0 1 0 8.884463811410267 -2.606285472804101 13.774871543654497 0 -3 0
1056 0 2 0 0.9357386789741305 0.025859572759048266 4.284014142290587 1 1 0
512 0 2 0 6.386581064813186 6.65809419312856 0.19604153454353712 0 -1 0
863 0 2 0 -5.1780417828648 18.15917720048654 8.028070763424616 0 1 0
263 0 2 0 -7.656374932244554 17.483560399713724 9.655990778159204 1 -1 0
39 0 2 0 6.74821723074941 5.274880925758955 8.485273511834878 -1 0 0
937 0 1 0 8.349804405980349 2.75272409914216 7.577034566919188 3 4 0
909 0 2 0 4.380595486322806 11.859750314334793 8.082210661829558 -2 -3 0
255 0 2 0 0.9028451317528017 4.044570363799418 4.84735646609682 -2 0 0
1220 0 2 0 7.929574128985936 2.460556309063302 3.104939733925833 -2 0 0
1377 0 2 0 5.166494750669271 4.369897875919638 0.4544272052987903 0 0 0
1230 0 2 0 2.494692555128499 -5.26138385317684 15.279078404241243 0 -3 0
1144 0 1 0 -1.9918722379340341 7.83812158656282 15.496156205817755 1 0 0
1432 0 1 0 4.898009527571593 -1.7534964432218816 5.799898472676494 0 0 0
904 0 1 0 -4.7785666195195065 17.293196243192583 11.027942398276245 2 0 0
775 0 1 0 1.2382466495059032 19.36522478730372 4.759344402088697 2 -1 0
207 0 2 0 4.632650733609423 1.9887326852443992 -0.4397904902529962 -1 -2 0
49 0 1 0 -0.8993068199776906 14.68832230181286 5.297464076756686 1 0 0
672 0 2 0 -1.0684663776368437 18.422241381800255 2.7790742422024364 1 1 0
759 0 2 0 1.9964627741099084 11.893864894419664 14.05926757226304 0 -1 0
191 0 2 0 -6.949469081580074 13.400634768963053 12.893737241968703 1 1 0
1202 0 2 0 14.141053785488793 -1.5297798814026922 15.207912613312939 1 1 0
130 0 1 0 8.9349030005552 0.891715138502299 14.803219185578358 2 2 0
616 0 1 0 7.927421778254207 -0.6633981543549852 9.312831556632664 1 4 0
1142 0 2 0 1.7790940888228455 14.63531173980769 13.359827208679134 -2 2 0
1131 0 2 0 -1.8287495045516875 14.774316469471104 -0.35231625329609445 0 0 0
727 0 1 0 5.62928915987566 0.38209239879385226 7.666229103634045 -1 0 0
283 0 1 0 2.4856981040698227 2.236489762378195 1.8784478660496209 0 2 0
2259 0 2 0 9.259442131145123 -3.4345077021510537 14.212432369491033 0 -3 0
99 0 2 0 4.376418148026156 15.516797928282758 6.835956270785491 -1 -1 0
2552 0 2 0 -4.677624031621329 10.219395851294689 7.964706198746271 1 1 0
918 0 2 0 9.614527231325411 3.4622020549517254 -0.20661273371689537 1 -1 0
165 0 2 0 3.1782224950818314 14.708744998718736 15.137917548692904 0 0 0
757 0 1 0 2.6370516474451575 11.455208226682565 13.452152989141062 0 -1 0
1018 0 1 0 5.690511329806197 18.583235249023247 1.5609198094570407 1 1 0
732 0 2 0 3.3704431957989693 2.845427964327798 15.377720384692509 0 -1 0
959 0 2 0 8.547576381695654 0.31214642803467285 12.012770075805218 -1 0 0
1143 0 2 0 1.897836481483155 14.095899322661074 11.992691211337645 -2 2 0
495 0 2 0 5.2921885922990075 2.1619389430526246 11.258372887218146 1 2 0
648 0 2 0 4.55613067483652 9.04601166454942 3.449291812137207 -1 1 0
51 0 2 0 -1.81433994402501 14.47360041537064 5.191369099674135 1 0 0
520 0 1 0 -1.4069838500211729 11.892076177831388 0.9548192463524467 0 2 0
1244 0 2 0 -3.050273481104328 13.726079922226722 12.945057994182006 -1 1 0
2314 0 1 0 3.1705009688102437 -1.489938251319391 13.324005871663399 0 2 1
949 0 1 0 1.381160677960116 12.80586079996493 9.486497507070744 0 -3 0
70 0 1 0 4.829854480769005 13.009347921881087 12.541301296715456 3 0 0
1103 0 2 0 -1.546024244707448 4.195767166004478 7.353270115973048 1 1 0
285 0 2 0 3.2558481168661166 1.7269111840149205 1.6003948306055844 0 2 0
671 0 2 0 -0.16300211419610805 19.588363988198402 2.159776583886612 1 1 0
783 0 2 0 -2.810593122202664 12.26513099662567 7.858823762634335 2 3 0
688 0 1 0 2.4264221702867634 4.7033531276104235 0.8871243652167087 -4 -1 0
900 0 2 0 -4.384411932111452 11.481504657483887 0.4803760112229418 0 1 0
537 0 2 0 6.242012444586008 7.430261419646264 15.38917866323493 1 0 0
1247 0 2 0 -2.565785250847651 16.651570801795593 2.5262571026180005 -2 -3 0
1110 0 2 0 8.286213005641418 13.977856721392165 4.677785636887145 0 -4 0