LAMMPS data file via write_data, version 23 Jun 2022, timestep = 8089000

2592 atoms
2 atom types

0 31.128 xlo xhi
0 21.465467 ylo yhi
-0.9789226589933868 32.68398965899401 zlo zhi
-9.18238 0.7934301406340475 -11.303219730646976 xy xz yz

Masses

1 1.008
2 15.999

Atoms # full

612 0 2 0 -1.7722666573139214 16.088423207073397 5.665108169147664 0 0 0
885 0 2 0 9.39392374943407 10.613932266445069 5.3363323349888745 0 0 0
115 0 1 0 3.991561728849678 4.885545751763091 7.094328252330392 0 0 0
312 0 2 0 5.828790945977005 -0.544302787317684 14.555716945285496 0 0 0
637 0 1 0 -0.6432372625067547 8.123892367380051 14.99631758874254 0 0 0
226 0 1 0 6.451510740886597 13.265361323386925 3.4421099307021006 1 0 0
1077 0 2 0 -7.834558853658138 16.14731777449098 8.966025839075954 1 0 0
1053 0 2 0 -0.7656391415024884 3.0529513706247275 14.701781635487903 0 0 0
1157 0 2 0 9.639867479540262 -3.551351240837632 10.426019728859893 0 1 0
420 0 2 0 -2.8552202773135553 13.853091478847 5.268427506980264 0 0 0
1240 0 1 0 8.084092851808952 1.6884950380259751 2.975059984184981 1 1 0
355 0 1 0 -0.3895377103182249 5.46798639116452 5.380411301849225 1 0 0
926 0 2 0 -6.504953381447246 13.111183975169213 15.351119050155994 0 0 0
837 0 2 0 1.6635763880678078 -2.052328462329661 14.745276666047408 0 1 0
196 0 1 0 6.569892840948237 12.782372133279834 13.034559216439652 0 -1 0
48 0 2 0 -7.836678177196652 18.104905670022358 0.18732995226657434 0 0 0
1065 0 2 0 11.740386433656935 0.8883482415002395 8.336437550078886 0 0 0
997 0 1 0 2.8892014012136635 -5.16308434784416 15.41628995969722 0 1 0
1154 0 2 0 4.4266644470496095 2.2375185185217785 8.534998546702107 0 0 0
354 0 2 0 3.836373134946254 7.9394378575331155 7.813524712945689 0 0 0
841 0 1 0 -0.739757623496967 15.65796207675188 0.39649594908001906 0 0 0
2259 0 2 0 -0.280582576536621 19.350294492716454 2.207116099048399 0 -1 0
1270 0 1 0 10.23798522426578 -0.6602455834789889 10.661831854430488 1 1 0
245 0 2 0 5.401655347792895 18.951926949743104 1.571096391871853 0 0 0
1205 0 2 0 15.490398603218157 -4.7926037693045735 15.54035922466052 0 0 0
310 0 1 0 5.952118358215685 0.04738707120970176 15.341703445572293 0 0 0
53 0 2 0 -0.7019491586115344 -1.1402949442148156 15.603861461983414 0 0 0
2342 0 2 0 7.319309316651449 10.313589641751411 -0.5829288360853523 0 0 0
538 0 1 0 -5.673286150364918 17.572642162735136 6.405732229490866 0 -1 0
366 0 2 0 10.173884671482933 7.021073373149214 10.753959648558714 0 0 0
956 0 2 0 2.345641426197466 1.0905511749499135 -0.8536904866971048 0 1 0
202 0 1 0 1.3794764700737845 5.797172432539273 13.213305661858534 0 -1 0
680 0 2 0 3.3303310302386597 6.189183632277221 15.75561578469594 0 0 0
141 0 2 0 7.907939527824225 6.017684710339354 -0.29570344086115263 0 0 0
32 0 2 0 7.871965872449763 11.708628316773195 12.610387730465813 0 0 0
1189 0 1 0 -0.18011585103915068 9.402284669131223 10.378538203949885 0 0 0
264 0 2 0 10.607432437051685 7.590575855681362 -0.4737881326824931 0 0 0
1143 0 2 0 10.49529268545904 6.450192798805999 15.59150354220455 1 1 0
852 0 2 0 5.5787151021173225 14.948080159980755 6.139955516949489 0 0 0
1002 0 2 0 -3.020413618595109 18.61260872956272 -0.20859090981641848 0 0 0
876 0 2 0 7.74527063404999 16.235277821202146 2.0556675051527526 0 -1 0
591 0 2 0 -0.9290598601660742 10.214465741663435 6.842117086519015 0 -1 0
136 0 1 0 2.2864772688216335 -1.3872959558939137 5.123751076590775 0 1 0
155 0 2 0 10.68902449600666 8.665448750842291 6.117156966356715 0 -1 0
884 0 2 0 9.238151095852938 9.715453460126186 4.135483443306721 0 0 0
401 0 2 0 5.350579070966797 9.684308695943876 3.7560949589023513 0 0 0
280 0 1 0 2.218800255604257 12.37544565907935 15.67546640756997 0 0 0
70 0 1 0 4.284239570045769 11.668727468302222 13.988637763354241 1 0 0
987 0 2 0 -5.699245532761189 13.946207372238755 1.803828435916608 0 0 0
573 0 2 0 -0.3673072828579131 16.031210958058022 12.524261628992083 1 -1 0
109 0 1 0 2.4916644371588488 2.9217291892579347 13.025100642075671 0 0 0
110 0 2 0 2.081121850054539 3.7887669220120133 13.129138077271822 0 0 0
111 0 2 0 2.394982758695173 2.3596837603377114 13.806714996107297 0 0 0
96 0 2 0 8.02353100780101 -1.681201875950682 15.36149788408192 0 0 0
246 0 2 0 3.896670744885853 18.849470389170037 1.7637204617292332 0 0 0
126 0 2 0 -4.415142326745264 10.551317988370132 0.4968734195493174 0 0 0
487 0 1 0 -6.6121398627745975 16.27222555578139 4.104815624069451 0 -1 0
855 0 2 0 4.4690477345883535 1.9107692813159076 4.152902968105503 1 1 0
1183 0 1 0 2.693554562868177 17.268440337948892 8.045816000941215 0 0 0
287 0 2 0 6.422014260743061 11.55561161717528 9.887169506163524 0 0 0
251 0 2 0 14.954966901335373 -4.313038732058598 13.318641049572403 0 0 0
2329 0 1 0 -3.57797027183874 14.357791766225274 -0.34616265496734955 0 0 0
380 0 2 0 5.934194433893696 5.38516727552392 14.78760092985311 1 0 0
1010 0 2 0 2.4922767926951535 15.463340622169817 3.5410844560890586 1 0 0
352 0 1 0 3.159690190163473 7.607089612611614 7.18637056120769 0 0 0
1250 0 2 0 8.971187303666126 -2.3178368382363437 13.337661813226749 0 0 0
27 0 2 0 -2.5324224815257734 12.335823276919223 10.575905278599615 1 1 0
206 0 2 0 -1.7391129251642914 4.9926357766606735 14.735911545374147 1 0 0
133 0 1 0 2.837309493279823 7.124360146271966 11.288750569513482 0 0 0
342 0 2 0 10.444162381252902 -3.90801152475972 12.389993376310228 0 0 0
638 0 2 0 0.05169135366969019 8.550072920394094 14.437090840682082 0 0 0
381 0 2 0 6.154964881615013 5.572048500032855 13.144559942779042 1 0 0
288 0 2 0 5.592210087785505 10.907241728315427 10.924322861982837 0 0 0
536 0 2 0 1.102465110813614 -0.9329790417991104 8.132856900210028 1 1 0
865 0 1 0 10.69093072478324 -5.328598075095233 15.232592850437928 0 1 0
237 0 2 0 3.4338537524456485 19.307811587830308 5.418858462852728 -1 0 0
227 0 2 0 5.879400071503894 13.47910535897008 2.682890008580561 1 0 0
1158 0 2 0 10.560169492922839 -2.3609931773789876 10.46587983095595 0 1 0
1211 0 2 0 7.790298184699989 8.948848244523147 6.185984887887789 0 0 0
1027 0 1 0 4.858069617077601 1.1677354737869137 0.1752737416270791 0 1 0
766 0 1 0 2.6578084940051854 7.9836723535503555 -0.36787622744542947 0 0 0
393 0 2 0 0.7717000874609081 15.227234069264469 8.427822303464415 0 0 0
1175 0 2 0 9.529264783568214 2.3592521616596884 5.741387558163228 0 0 0
114 0 2 0 5.04492423733435 4.398398494166447 11.826181226234473 0 0 0
253 0 1 0 -1.017541286362553 3.8273544280193343 2.481594277471912 0 0 0
648 0 2 0 6.266737827327534 8.745283026506314 15.171458428952214 0 0 0
296 0 2 0 5.972771217909577 3.7433276426424817 0.06646307773884241 0 1 0
319 0 1 0 7.560545054892602 14.246011237943826 8.527059243085246 0 0 0
2257 0 1 0 0.5428542750478376 18.914130327045868 1.853691431467709 0 -1 0
1289 0 2 0 -3.332600964572209 6.179790215938669 15.594940377964473 0 0 0
353 0 2 0 2.325609798681818 7.607462134349065 7.605380437967195 1 0 0
1096 0 1 0 8.788408954774019 8.749340621497485 8.844592849336596 0 0 0
414 0 2 0 -1.2194961441168708 6.528961253345693 11.424401045877204 0 0 0
947 0 2 0 5.286155582902723 -0.45042346178819637 11.007927981079378 1 0 0
52 0 1 0 0.1084826862411839 -1.647818918268249 15.848426910289284 0 0 0
477 0 2 0 -0.10256068277637342 11.260508810534821 5.055524451276212 0 -1 0
1009 0 1 0 2.8524499840564865 14.618282543154729 3.2296492728868893 1 0 0
1052 0 2 0 -1.2848706373869863 1.5753536720148826 15.257119462162791 0 0 0
1013 0 2 0 -1.4003512900361992 3.677333386107855 0.7179092582865025 0 0 0
547 0 1 0 3.9796624524415134 14.979746508388262 14.76591685175448 0 0 0
298 0 1 0 7.4781063163151815 1.3222285720541418 8.298056401597627 0 0 0
185 0 2 0 11.422769297901429 4.7892423221769445 0.9511298833534048 0 0 0
490 0 1 0 -0.6995127594443286 1.1024432004606273 2.8954406410735074 1 0 0
999 0 2 0 -7.037673940796197 15.6581370030368 15.445026148949868 0 0 0
419 0 2 0 -3.854788255864876 12.589353976106263 5.278784558055349 0 0 0
903 0 2 0 1.3292183409208596 2.090092215871511 9.501258283033307 1 1 0
263 0 2 0 11.758693437499378 8.009956856933751 0.5059769043450322 0 0 0
200 0 2 0 0.3626912972781689 18.56063660126831 0.12168183043896819 0 0 0
579 0 2 0 4.237097645443705 12.245653695394786 9.555326998930063 1 1 0
389 0 2 0 8.8158934520197 14.111477066665612 0.5867760640121036 0 0 0
867 0 2 0 10.531858926324137 -4.61128105250388 14.581936169536858 0 1 0
139 0 1 0 8.15699840473929 5.8262480631007945 0.595261178265142 0 0 0
37 0 1 0 11.572908968493277 4.168026618629515 12.300911984797404 0 0 0
552 0 2 0 -4.525145581029765 7.826953284085586 15.204868507256595 0 0 0
379 0 1 0 6.52450816360155 5.62044721527657 14.047460506918489 1 0 0
1152 0 2 0 0.8209086494908534 1.5555514866352063 15.326574539205723 0 0 0
1 0 1 0 -3.251023463758596 5.526633927031838 7.620682612188775 1 0 0
369 0 2 0 -5.826243090333171 16.480438427832237 11.016807366975733 0 -1 0
1031 0 2 0 0.0051855764838681095 8.17923860507122 7.519429601162178 1 0 0
524 0 2 0 9.383205639897506 0.2347560850375865 4.113513520969213 0 1 0
1098 0 2 0 9.575658385692082 8.69088539822365 8.28567948559301 0 0 0
1067 0 2 0 0.37372539154768425 14.52182587658106 3.1916367644230705 0 0 0
526 0 1 0 1.4630832437519536 14.023360435335071 0.9142937388950194 0 -1 0
737 0 2 0 9.643035370036083 7.475158896735514 2.919592663170146 0 0 0
1006 0 1 0 -2.8564387145148764 16.696971312041878 2.0828172768966136 1 0 0
1020 0 2 0 1.324555444653478 -1.5950954867636313 10.48227580585083 1 1 0
1001 0 2 0 -4.2242198584221855 19.371247141520247 0.5174376118965383 0 0 0
763 0 1 0 12.32893485320519 1.6092807809171408 13.254042069585038 0 0 0
25 0 1 0 -2.174974828726315 11.582284508321745 10.102772591866762 1 1 0
57 0 2 0 -3.2225594400739848 15.005126629720808 14.011929691186815 0 0 0
1168 0 1 0 6.024841635317954 -3.2941273509015634 12.427606192418372 1 0 0
1223 0 2 0 7.054112475532966 11.89704575998258 1.4388149685723683 0 0 0
1068 0 2 0 -0.8765819117123921 14.60695644976779 4.080396232316519 0 0 1
946 0 1 0 4.326688113093537 -0.6361341341896796 10.960549777659928 1 0 0
46 0 1 0 -7.545289347136479 17.63510166795619 -0.6349668198534448 0 0 0
320 0 2 0 7.089122454644499 14.33284803622251 9.377262489112185 0 0 0
835 0 1 0 2.1683014020931277 -2.5348095523098513 14.109765036643026 0 1 0
1281 0 2 0 4.4276631154684205 -0.9554547123513212 2.5629318762486903 0 2 0
977 0 2 0 -1.5745196988713317 2.594127431983324 11.753500320982928 0 0 0
100 0 1 0 0.3534296154379778 17.757481825764113 5.63899895325961 1 0 0
2258 0 2 0 1.2995928162271433 19.489143982832736 2.085375086964591 0 -1 1
181 0 1 0 -4.614680291708691 11.378808583517305 8.85642407451011 1 0 0
881 0 2 0 5.258950962660137 9.707657268182487 8.861265934774044 0 0 0
1035 0 2 0 10.163807258164137 0.15130958262943484 15.132791648327824 0 1 0
1055 0 2 0 -1.028750062753497 13.32661215320263 13.92596362015778 0 0 0
201 0 2 0 0.13840865397375504 17.183607396603158 -0.5133526708125808 0 0 1
1041 0 2 0 7.145404264555191 0.6630728101472245 11.467441039220873 0 0 0
112 0 1 0 4.996025460620287 3.4291583817153626 11.798961182192311 0 0 0
295 0 1 0 5.822860256309313 3.6893161323542376 -0.852654720227217 0 1 0
563 0 2 0 -2.5717585502465057 8.116463164907948 13.324929895504178 1 0 0
231 0 2 0 4.597066432062399 6.222723072356309 3.240944809199786 1 0 0
178 0 1 0 3.0052249259353023 10.514535171988134 -0.7377983268090728 0 0 0
511 0 1 0 13.72396116249669 -0.6107899477191463 15.283323831139942 0 1 0
469 0 1 0 4.00737331648046 -2.4110437794317026 9.059542302655418 1 0 0
91 0 1 0 11.15756267194508 2.6107262681829306 8.414640195239492 1 1 0
1171 0 1 0 6.209142910997383 9.29278350709259 12.254491253322964 0 0 0
198 0 2 0 6.1970861443987015 13.361166905342333 12.359549056808815 0 -1 0
1181 0 2 0 -1.3896521280429677 12.376586273685817 0.959614553220812 0 0 0
1182 0 2 0 -1.556787167600681 13.467891320086393 2.0756278899824663 0 0 0
578 0 2 0 3.505790545893129 12.316640684777223 8.193049327866484 1 1 0
1063 0 1 0 11.821187884553398 -0.07837882212919745 8.442634774699913 0 0 0
527 0 2 0 2.160495753394348 13.874391997057797 1.591834184179473 0 -1 0
179 0 2 0 2.7621038580611255 9.576495108954273 -0.7990047168528511 0 0 0
699 0 2 0 -5.315372124189851 13.82131360048039 13.344087157525626 0 -1 0
539 0 2 0 -6.265652659930103 17.71671882901356 7.157506007380489 0 -1 0
660 0 2 0 5.0141482357406835 14.79122680014553 11.242584854393984 0 -1 0
135 0 2 0 2.345736093503589 6.436211795404908 10.791173748569044 0 0 0
197 0 2 0 5.863843789927624 12.298012649200984 13.448143671713327 0 -1 0
979 0 1 0 2.643149083599581 8.519595395762877 4.685743801826094 1 1 0
294 0 2 0 2.342567476000581 12.512722904353923 5.660813527135283 1 0 0
356 0 2 0 0.45778178202796604 4.983180156289599 5.314515567838886 1 0 0
1176 0 2 0 10.508787990723773 3.0728627520018685 6.639530490094348 0 0 0
1021 0 1 0 9.196644044708739 5.7412650296241186 12.951765898214626 0 0 0
436 0 1 0 6.235150750840757 6.502507189213363 9.16990590210279 0 -1 0
364 0 1 0 9.586688628254063 6.470873148212313 10.279057843892117 0 0 0
702 0 2 0 -1.3932551595267773 19.48533103697575 3.9592605454764005 0 0 0
1258 0 1 0 3.6906616890502533 2.393229240307061 2.364296292599522 1 0 0
361 0 1 0 7.254139962015836 0.027326144052022494 0.676230737309182 0 1 0
362 0 2 0 -2.348771655221678 20.60318492176788 0.6300182606189864 0 0 0
363 0 2 0 7.489050711188027 0.2731442939158951 1.6028800368209364 0 1 0
525 0 2 0 9.64596020508343 -0.2680715984638331 5.545881604346037 0 0 0
907 0 1 0 -4.5741538176290115 14.694237628961883 2.9357175517696157 0 -1 0
337 0 1 0 8.15677797234413 5.116698283847921 7.716281670845529 0 0 0
935 0 2 0 0.44523870889611183 0.49571982003484116 12.000430868568264 0 0 0
1142 0 2 0 10.576859956645542 6.394532556578656 14.101194000379738 1 1 0
454 0 1 0 5.507421002986163 5.989318677941978 11.668770405499263 0 0 0
437 0 2 0 6.998899193577315 6.098442039245928 8.705261631417715 0 -1 0
633 0 2 0 0.29017100049743555 14.577407784188688 14.919585454451438 0 0 0
730 0 1 0 3.3610230890064026 14.650612601040336 12.046436285240386 0 0 0
400 0 1 0 4.844653429350828 9.217131115764682 3.061830969406919 0 0 0
972 0 2 0 7.682298553045042 2.4358726140382645 13.065101114295343 0 0 0
402 0 2 0 5.202032976582665 8.327510953357265 3.069014732633142 0 0 0
403 0 1 0 4.947265493653253 13.132797928936725 1.1971102015453083 0 0 0
1075 0 1 0 -7.554507305787895 17.048445100252753 8.69164026605629 1 0 0
405 0 2 0 4.583311038298861 13.801136000675584 0.5366918132524592 0 0 0
902 0 2 0 0.9749643340942575 2.626255412858009 7.994832945829328 1 0 0
292 0 1 0 3.10054298548416 13.043023344265851 5.45312471646881 1 0 0
1193 0 2 0 1.8063161996887187 11.932757400076403 12.034267528474931 0 -1 0
13 0 1 0 7.166855181675058 -1.5773811836334135 8.19636065598015 0 1 0
610 0 1 0 -1.4318330515662097 15.19382300916453 5.844487744188099 0 0 0
1156 0 1 0 10.596665308954027 -3.346717374884978 10.264442098610209 0 1 0
131 0 2 0 2.874258272970349 0.762009553209551 7.69284798786501 0 0 0
452 0 2 0 -2.953850882337256 15.639341914018036 8.189808107704966 0 0 0
561 0 2 0 0.07880167792534959 -4.64457038308495 15.667424587499628 0 0 0
698 0 2 0 -6.532272559720983 14.552735091386275 12.698661780676579 0 -1 0
522 0 2 0 -2.578420544236548 6.578089830813929 1.6770097674492974 0 0 0
557 0 2 0 9.324890334189572 10.119149727849145 13.274374880134273 0 0 0
632 0 2 0 0.729097423027455 13.142222714053807 15.238829012510838 0 0 0
1056 0 2 0 -1.9770455569189413 13.555090832509133 12.672953229434006 0 0 0
853 0 1 0 4.763339418566416 1.2428275453969007 4.843396139992673 1 1 0
540 0 2 0 -4.872268101854649 18.122566970557806 6.476537266104386 0 0 0
1249 0 1 0 8.350924259941044 -1.5994912492804505 13.502720631526936 0 0 0
439 0 1 0 12.200070053866307 -0.7929548921793463 2.1366100989224552 0 1 0
440 0 2 0 12.632591382901325 -0.22959382181094234 1.4826715630106557 0 1 0
441 0 2 0 12.53556714871093 -0.4649084517504266 3.0028444930107216 0 1 0
1040 0 2 0 7.261085019059376 -0.8287364511489468 11.937066738943042 0 0 0
796 0 1 0 5.5625728733654745 -2.129425001094363 6.053986674171938 1 1 0
784 0 1 0 -2.9777685818085544 14.06188140096452 11.203196371384891 1 0 0
238 0 1 0 -0.45916374266490934 -0.1667613206095262 5.722595760146143 0 0 0
451 0 1 0 -2.2949006780381453 15.816168298640266 8.911316486833876 0 0 0
799 0 1 0 3.0627740439917455 10.985090412679403 1.9628338964758498 0 0 0
453 0 2 0 -1.4833217874411813 15.471705450305627 8.42348121823785 0 0 0
117 0 2 0 3.625297835444206 5.753652471502431 7.479693110172416 0 0 0
33 0 2 0 8.681398281416126 11.255829286102664 11.4395510483764 0 0 0
908 0 2 0 -4.0024837269667914 14.103828814237525 3.41258913439784 0 -1 0
333 0 2 0 13.723698026839852 -2.2836764528331193 12.444912009468913 0 0 0
244 0 1 0 4.682620530380007 18.3882323034885 1.3266513636381108 0 0 0
523 0 1 0 10.012136284691222 0.3063398355251108 4.87641791030676 0 0 0
931 0 1 0 1.4925373825302732 9.501893337855424 13.908594292562073 1 0 0
2198 0 2 0 10.572896516657405 3.5018424293704458 -0.7663485231786308 0 0 0
134 0 2 0 2.9680190901342014 7.772070039795296 10.629440418832894 0 0 0
1172 0 2 0 6.011252948235029 8.792848297755363 13.052339527889675 0 0 0
1212 0 2 0 7.588633424168607 8.148493477356704 7.496229506015252 0 0 0
1251 0 2 0 8.926784037928332 -0.7831019545841427 13.506889025977598 0 0 0
344 0 2 0 7.029859999130759 1.5796553406691132 15.303833081889245 1 0 0
171 0 2 0 13.529221136823347 2.9361166453067815 3.4198760418844234 0 0 0
293 0 2 0 3.3657996381329953 13.55239082592572 6.226592136127699 1 0 0
1219 0 1 0 1.8905366080687467 1.09620320647556 3.9593013922721036 1 0 0
918 0 2 0 -1.5918170208700326 4.684241265609884 9.538513969740029 1 0 0
392 0 2 0 0.7436933404477688 16.433133122077976 7.362602772134434 0 0 0
2330 0 2 0 -2.923800020242385 13.975030044961573 0.27844127708906874 0 0 0
1136 0 2 0 7.615800226083518 1.3205446060742152 6.652891269607681 0 1 0
993 0 2 0 7.153016849238535 14.963274346520409 -0.6365867071407878 0 0 0
1145 0 2 0 -3.8452285795720984 8.487033198766762 5.980213172619897 1 0 0
1016 0 2 0 14.17710965518386 -1.7930534028687137 9.401658848949507 0 0 0
14 0 2 0 7.341988957955362 -2.145825775472667 8.977523754972994 0 1 0
1195 0 1 0 5.1034876384955155 17.902063526843314 9.536563580163646 0 0 0
345 0 2 0 7.429555817357196 2.9682626619572954 15.655632305054127 1 0 0
1007 0 2 0 -2.1744458599560206 16.355115271222274 1.4862901468479572 1 0 0
2185 0 1 0 -0.7056878647934637 6.823896037939249 -0.821501346809465 0 0 0
516 0 2 0 -0.761809531410863 12.086478870724555 9.08136936921905 1 0 1
1135 0 1 0 7.458459062207056 1.4237020570164258 5.691430983595759 0 1 0
565 0 1 0 2.6134559733658964 6.097458298968011 3.3876163613399033 1 0 0
1087 0 1 0 9.418846620989578 4.584278551911044 3.3143831085704223 0 0 0
332 0 2 0 14.300257183698818 -3.0468657415319873 11.331006962968212 0 0 0
930 0 2 0 -1.6852849075595344 17.41935566298706 9.754397070782804 0 -1 0
932 0 2 0 2.2784513917306435 9.033297241700605 13.650487496191403 1 0 0
1033 0 1 0 9.853966169477266 0.5488495206973472 14.33736889651897 0 1 0
555 0 2 0 -6.656475844680964 19.613921842078533 1.481444617079192 0 -1 1
801 0 2 0 3.472255637288827 10.246778410863783 2.4262766144492196 0 0 0
262 0 1 0 10.846750880283942 8.218535908898767 0.2428244368516923 0 0 0
412 0 1 0 -0.3317495717004927 6.7866335839239955 11.140614071359758 0 0 0
1088 0 2 0 9.483957895766931 4.156567254478929 4.159754334313093 0 0 0
590 0 2 0 -1.968656989933352 9.254510266395037 7.109559331858531 0 -1 0
138 0 2 0 2.262678289018855 -1.3393893345553427 6.075130112424352 0 1 0
184 0 1 0 10.564313930800738 4.361305035711938 0.8997314513043246 0 0 0
844 0 1 0 10.301874704248014 10.9256439193566 -0.2228496407449898 0 0 0
628 0 1 0 6.168983211755824 17.819068146692697 5.509943306508982 0 -1 0
566 0 2 0 2.5011433061026764 6.9713221674666705 3.8067453982815236 1 0 0
533 0 2 0 0.8850933105904597 6.122653558089899 8.92285012013104 1 0 0
1224 0 2 0 8.45381427411327 11.619552207852106 0.9026952919778184 0 0 0
1235 0 2 0 4.254001477029974 14.351600886966702 7.991572399624262 1 0 0
1051 0 1 0 -0.6847846311154159 2.322835874951795 15.376824642809467 0 0 0
1029 0 2 0 4.6800342264211 1.9609100716844736 -0.2933287905619478 0 1 0
1022 0 2 0 8.463640400666565 5.722926497018136 13.550154389745177 0 0 0
614 0 2 0 9.025829351078459 -1.505905870349365 7.5228166654749895 1 0 0
228 0 2 0 6.429647058768255 13.993767726731546 4.048890976526062 1 0 0
140 0 2 0 8.036036166288243 6.641880093143984 1.0484382708134183 0 0 0
421 0 1 0 10.795321755604737 1.5600946586827869 2.0513891628738135 0 0 0
1146 0 2 0 -3.6253033590466184 7.548551621427591 7.132856512983233 1 0 0
102 0 2 0 0.5649327940596726 18.695897601868253 5.913344368774687 1 0 0
770 0 2 0 0.40293225049561426 1.5209668150568985 6.055922887653239 0 0 0
506 0 2 0 10.960250499586076 6.5172841833580915 7.467934324824382 0 0 0
2 0 2 0 -2.7282574372814965 4.792000589230463 7.277878431604414 1 0 0
613 0 1 0 9.787497586116354 -1.4519708287112076 6.949155697730073 1 0 0
497 0 2 0 12.242814435983659 -0.6340908595394765 12.645387489596928 0 0 0
488 0 2 0 -6.384111965964104 16.767407524813766 4.894647551199414 0 -1 0
544 0 1 0 2.53320295256745 9.66808297214419 9.97542142770734 1 0 0
577 0 1 0 3.818385602946727 12.873854738461864 8.969746293836915 1 1 0
137 0 2 0 3.208578091297209 -1.581904766393373 4.802373454587915 0 1 0
515 0 2 0 -0.5376871704049748 12.353862007212372 7.615650860793442 0 0 0
1236 0 2 0 3.550824930887565 15.71925453870943 7.365745144097126 1 0 0
786 0 2 0 -2.5914747121122317 14.659045211218398 10.568196120169384 1 0 0
949 0 1 0 4.629687439783488 -1.1553053451199808 13.474756457393944 0 0 0
236 0 2 0 2.9712673111718964 17.92829207745757 4.809108555117141 -1 0 0
55 0 1 0 -4.033155736026676 14.565811741257402 14.380954980131461 0 0 0
580 0 1 0 -3.9905795038357805 9.394499338241793 12.309068912064735 0 -1 0
1221 0 2 0 2.067615467874679 0.15516883887726962 4.2257714385687155 1 0 0
581 0 2 0 -3.7062407086963787 10.300008738775817 12.444315979314807 0 -1 0
914 0 2 0 0.8680779196681214 9.965861421673752 3.2076191712218565 0 0 0
535 0 1 0 2.024245707521922 -0.9353902141516497 7.820284480042863 1 1 0
582 0 2 0 -4.265166633410216 9.332564745287769 11.379909671030711 1 -1 0
199 0 1 0 0.3704213895443325 18.08045204450639 -0.7172410422023181 0 0 0
962 0 2 0 -0.9401574056312303 -0.48303559167281973 9.26328171765643 1 1 0
639 0 2 0 -1.4141692581086651 8.640752604785437 15.141392927179915 0 0 0
1062 0 2 0 7.256551857965052 13.688015175554098 14.308914389997495 0 0 0
658 0 1 0 5.931392983388152 14.470727100043705 11.11455510136901 0 -1 0
26 0 2 0 -2.8453247081899997 11.170612697842923 9.552253655085565 1 1 0
1210 0 1 0 7.181292926428909 8.32632170890287 6.642246673413544 0 0 0
1046 0 2 0 -4.588585413489432 11.999111563500087 14.587935144754013 1 0 0
1137 0 2 0 7.278408140783881 2.359545839215605 5.702272648027877 0 1 0
283 0 1 0 -3.228893193468617 9.087957612978535 15.456007057359066 0 0 0
749 0 2 0 -6.287290689100731 12.989903714124747 6.600405854679909 1 0 0
800 0 2 0 2.285175324296546 11.187713596208345 2.53272747444059 0 0 0
455 0 2 0 5.900514586148178 6.19720118459651 10.809767645726284 0 0 0
423 0 2 0 9.881199039765809 1.7536296314082749 2.28276170193291 0 0 0
203 0 2 0 1.196202291730314 6.422442452378315 12.5760187170361 0 -1 0
456 0 2 0 4.734661885274383 6.4902826486319825 11.711031707835613 0 0 0
748 0 1 0 -5.661571015993526 12.308935600266729 6.453631045557861 1 0 0
562 0 1 0 -2.2721377320143405 7.263416541181235 13.024910018593209 1 0 0
1103 0 2 0 3.3698741439250033 4.809269590232561 0.14265669790851487 1 1 0
431 0 2 0 8.541088341731149 12.351591265170835 6.162478576753421 -1 1 0
629 0 2 0 6.546787730035652 18.579699026290363 5.0522831198848035 0 -1 0
834 0 2 0 -8.136261696609829 16.282188349271255 12.447671652572485 0 -1 0
1017 0 2 0 14.246016237156155 -0.34527296564202814 10.190257407061113 0 0 0
934 0 1 0 0.06750321847559904 0.004788865238404938 12.74959921209663 0 0 0
1097 0 2 0 8.887747090223424 8.003858018226694 9.475074880559166 0 0 0
697 0 1 0 -5.864522092901185 13.85550161665589 12.548442130801924 0 -1 0
545 0 2 0 1.5542166830130415 9.476423787969638 10.036489309492781 1 0 0
851 0 2 0 6.342109438009096 15.876253886929788 5.373360793741339 0 0 0
810 0 2 0 -5.215216583664735 15.960422553921436 7.146104241368599 1 0 0
1032 0 2 0 0.06503516599468379 6.8315039969642966 6.6037323134969155 1 0 0
2511 0 2 0 8.977730000059724 0.3819541855863045 -0.1688336313686395 0 0 0
7 0 1 0 -2.0333122267141888 3.36082927124538 6.4344763968363505 0 0 0
1260 0 2 0 3.9671379243481524 1.6803526833407747 1.7100995077342076 1 0 0
673 0 1 0 5.4693936960334355 11.1279696950971 4.879164104320053 0 0 0
674 0 2 0 4.606588217805357 11.584079458823453 5.033257571000298 0 0 0
631 0 1 0 -0.08752653464251575 13.691576559090947 15.098754040492121 0 0 0
272 0 2 0 7.240820341184797 15.800243565844521 7.915552878645082 0 0 0
286 0 1 0 5.575575015101981 11.164350790008985 10.000135725660423 0 0 0
1190 0 2 0 -0.3205418161376181 8.441707722324207 10.499256546846203 0 0 0
808 0 1 0 -4.716727911551127 15.326620683986585 7.661257247100785 1 0 0
299 0 2 0 6.712047634809856 1.8736551081388115 8.605402689147764 0 0 0
647 0 2 0 6.740962843632998 7.408440921028752 14.594610794047925 0 0 0
925 0 1 0 -5.760472860304326 12.622593978941328 15.724220514887332 0 0 0
1234 0 1 0 4.166742293168183 14.921547191204674 7.22407818656699 1 0 0
1011 0 2 0 3.0162229498902007 14.144287916230645 4.031330320205305 1 0 0
696 0 2 0 0.044049998115927996 5.156817368966534 1.8112689568829716 0 0 0
868 0 1 0 -3.7042864164403695 8.676630738140167 4.309604849057745 0 0 0
475 0 1 0 -0.6290841722246177 11.60590882211383 5.77055478564141 0 -1 0
1150 0 1 0 1.641767317221352 1.1474939308984995 14.918729355865207 0 0 0
1242 0 2 0 7.912466206921657 1.7737175100342877 3.9422311066291478 1 1 0
548 0 2 0 4.242651118519684 14.396538535176694 15.507754770741524 0 0 0
1194 0 2 0 3.0216020734547175 12.869794357677502 11.647628263344826 0 -1 0
558 0 2 0 8.76213227846376 8.829947240583703 13.782905834934697 0 0 0
913 0 1 0 1.1007290475475273 10.415868109958126 4.022553570614638 0 0 0
843 0 2 0 -0.8487052710222162 15.084115361986905 -0.37856888503253006 0 0 0
554 0 2 0 -6.244642617781171 20.649523814098547 0.39338771038514886 0 -1 0
679 0 1 0 2.7703764920211778 6.921472696938382 15.501188820864265 0 0 0
700 0 1 0 7.839401131364001 -1.1910857150246377 3.3873571203229007 0 1 0
701 0 2 0 6.889298277365359 -1.1246428272958457 3.178185240897805 0 1 0
1130 0 2 0 2.940304852824651 0.6261393337340797 10.807978024509962 1 0 0
1030 0 1 0 0.45689272876963094 7.260334442229796 7.414852348338995 1 0 0
1272 0 2 0 9.4039262627078 -0.2636267552777518 10.733941020025167 1 1 0
936 0 2 0 0.7495257618605193 0.2623689141798229 13.409588507771069 0 0 0
589 0 1 0 -1.1637900534187684 9.545515403629988 7.520465554220616 0 -1 0
101 0 2 0 -0.5723575496724111 17.741988536356068 5.442974447078983 1 0 0
858 0 2 0 -0.5414266778507415 7.58085267355904 2.6848767441911097 0 -1 0
186 0 2 0 9.951766585689812 5.062563753178634 0.6623532157354193 0 0 0
1120 0 1 0 -3.7828402505003247 10.948049488733934 2.298698749198899 0 0 0
603 0 2 0 2.69959087656689 4.402588255092786 6.011665686959772 1 1 0
1047 0 2 0 -3.0926583865189023 12.026663200893884 14.114549181232434 1 0 0
1173 0 2 0 6.367442529566387 8.625823262193093 11.582055572364636 0 0 0
845 0 2 0 10.311471274649524 9.915830234147286 -0.3128701699457339 0 0 0
715 0 1 0 12.4371129372039 4.58106296261859 5.576769039155885 0 0 0
105 0 2 0 11.966602006464187 1.423290608281432 0.5608418268920246 0 0 0
782 0 2 0 1.6187582126574338 17.450697652182043 2.8574136319055494 0 0 0
783 0 2 0 1.3023323600053456 17.220868365494905 4.367482382750789 0 0 0
498 0 2 0 12.983486353788699 -1.089487251989425 13.880641157825393 0 0 0
773 0 2 0 8.357932478462967 3.865042795582593 9.218308815041196 1 1 0
1112 0 2 0 -0.06043142202377133 10.785188764582205 11.648125639735477 0 0 0
130 0 1 0 3.2731659634443018 1.5979460213724535 7.333553482872681 0 0 0
31 0 1 0 8.701138013223781 11.403541324861113 12.404564332395669 0 0 0
341 0 2 0 11.034973284369936 -2.6116395607431904 13.157761039577341 0 0 0
917 0 2 0 -0.5866387473362684 3.5440478552225434 9.566893840358942 1 0 0
205 0 1 0 -1.2927700533993636 4.591420759841728 13.964312874048947 1 0 0
857 0 2 0 -1.2106210836071065 6.697180948705141 3.8535819191867198 0 -1 0
104 0 2 0 13.008088973283842 0.7830137921189597 -0.41102195772498973 0 0 0
976 0 1 0 -2.1015010551803757 1.8964847885622778 12.133364270077374 0 0 0
615 0 2 0 10.524594270167691 -1.0947501571866511 7.393828012869182 1 0 0
113 0 2 0 4.236556597909197 3.1064027852227385 12.304741934750387 0 0 0
446 0 2 0 8.245157414166467 6.7334891071592455 4.351233780564608 0 -1 0
41 0 2 0 5.953879993767281 4.266960557196154 6.193610096979911 0 0 0
1185 0 2 0 2.11023546451086 17.622106347943088 8.803897818837916 0 0 0
1282 0 1 0 -2.228540886781047 17.806390116964096 4.475598331873015 0 0 0
981 0 2 0 2.8575474212513754 8.285910473415967 5.597861933089309 1 1 0
445 0 1 0 7.4047693635313205 6.497463856872029 4.690506638142759 0 -1 0
438 0 2 0 5.94808223862205 7.36859756733466 8.841023818344201 0 -1 0
1019 0 2 0 1.8467587849120966 -2.5176261433068166 11.605151900900278 1 1 0
798 0 2 0 6.068403819608049 -2.0274264314381165 6.8690461753434375 1 1 0
38 0 2 0 10.732099733424757 4.5256808013666925 12.564582759357277 0 0 0
1159 0 1 0 2.235317415269414 10.932420675387137 7.3429644282582505 0 0 0
343 0 1 0 7.612469984093185 2.282950719580267 14.989027240219485 1 0 0
1129 0 1 0 2.071530461662568 1.084120151173726 10.894930642560173 1 1 0
537 0 2 0 2.6098423089196054 -1.3907712718215768 8.448769860835142 1 1 0
909 0 2 0 -4.058030820086128 15.262165207582289 2.379584495321829 0 -1 0
970 0 1 0 7.448247086174532 2.385929445379845 12.064305270800888 0 0 0
1045 0 1 0 -3.86548020903632 11.486654405635495 14.199009538338757 1 0 0
284 0 2 0 -3.6432753418255612 9.815306108489821 14.948478300059017 0 0 0
602 0 2 0 2.4471350692732323 4.856213986511957 4.600453968314887 1 1 0