LAMMPS (23 Jun 2022)
include procedure.lmp
echo both
include		in.partitions
variable        pid world 0
include		in.temp
variable	temperature equal 245
variable        tempDamp equal 0.100 # this is 0.1 ps
include		in.pressure
variable        pressure equal 3039.75
variable        pressureDamp equal 1.0 #this is 1ps

variable	barostat string	   tri
variable	direction string   z
variable	direction_x_bool equal 0
variable	direction_y_bool equal 0
variable	direction_z_bool equal 1

include		in.seed
variable        seed world 745823

units           metal
atom_style	full
box tilt large
read_restart 	restart.lmp.${pid}
read_restart 	restart.lmp.0
Reading restart file ...
  restart file = 23 Jun 2022, LAMMPS = 23 Jun 2022
  restoring atom style full from restart
  triclinic box = (0 0 -0.87015513) to (31.128 21.465467 32.575222) with tilt (-9.18238 0.78830287 -11.230177)
WARNING: Triclinic box skew is large (../domain.cpp:224)
  2 by 1 by 2 MPI processor grid
Summary of lammps deepmd module ...
  >>> Info of deepmd-kit:
  installed to:       /u/sigbjobo/software/DEEPMD_FROM_SOURCE/deepmd-kit/install
  source:             v2.1.3
  source branch:       master
  source commit:      5a32c49
  source commit at:   2022-07-01 09:52:58 +0800
  surpport model ver.:1.1 
  build float prec:   double
  build with tf inc:  /u/sigbjobo/software/DEEPMD_FROM_SOURCE/tensorflow/install/include;/u/sigbjobo/software/DEEPMD_FROM_SOURCE/tensorflow/install/include
  build with tf lib:  /u/sigbjobo/software/DEEPMD_FROM_SOURCE/tensorflow/install/lib/libtensorflow_cc.so;/u/sigbjobo/software/DEEPMD_FROM_SOURCE/tensorflow/install/lib/libtensorflow_framework.so
  set tf intra_op_parallelism_threads: 0
  set tf inter_op_parallelism_threads: 0
  >>> Info of lammps module:
  use deepmd-kit at:  /u/sigbjobo/software/DEEPMD_FROM_SOURCE/deepmd-kit/install
  source:             v2.1.3
  source branch:      master
  source commit:      5a32c49
  source commit at:   2022-07-01 09:52:58 +0800
  build float prec:   double
  build with tf inc:  /u/sigbjobo/software/DEEPMD_FROM_SOURCE/tensorflow/install/include;/u/sigbjobo/software/DEEPMD_FROM_SOURCE/tensorflow/install/include
  build with tf lib:  /u/sigbjobo/software/DEEPMD_FROM_SOURCE/tensorflow/install/lib/libtensorflow_cc.so;/u/sigbjobo/software/DEEPMD_FROM_SOURCE/tensorflow/install/lib/libtensorflow_framework.so
  restoring pair style deepmd from restart
  2592 atoms
Finding 1-2 1-3 1-4 neighbors ...
  special bond factors lj:    0        0        0       
  special bond factors coul:  0        0        0       
     0 = max # of 1-2 neighbors
     0 = max # of 1-3 neighbors
     0 = max # of 1-4 neighbors
     1 = max # of special neighbors
  special bonds CPU = 0.000 seconds
  read_restart CPU = 0.058 seconds
include 	in.setup
variable	out_freq equal 2000
variable	out_freq2 equal 2000

timestep        0.0005

neigh_modify    delay 7 every 1

include         in.deepmd
# This is deepMD model

# create groups ###
#group ox type 2
#group hy type 1

mass 2 15.999
mass 1 1.008

pair_style      deepmd ../graph.pb
pair_coeff      * *

bond_style      none
angle_style     none
dihedral_style  none
improper_style  none
neigh_modify exclude none


neighbor        2.0 bin
neigh_modify    every 50 delay 0 check no

thermo          ${out_freq}
thermo          2000
thermo_style 	custom step temp pe etotal epair emol press lx ly lz vol pxx pyy pzz pxy pxz pyz

restart 	${out_freq} restart.lmp.${pid} restart2.lmp.${pid}
restart 	2000 restart.lmp.${pid} restart2.lmp.${pid}
restart 	2000 restart.lmp.0 restart2.lmp.${pid}
restart 	2000 restart.lmp.0 restart2.lmp.0


timer           timeout 23:50:00 every 1000
New timer settings: style=normal  mode=nosync  timeout=23:50:00


# Set number of time steps
variable 	nsteps_wall		equal	 6000000
variable 	nsteps_enhanced_coex    equal	150000000

variable     nsteps_enhanced_coex_upto equal (${nsteps_wall}+${nsteps_enhanced_coex})
variable     nsteps_enhanced_coex_upto equal (6000000+${nsteps_enhanced_coex})
variable     nsteps_enhanced_coex_upto equal (6000000+150000000)


# Set temperature for first step
if "$(step) < 1  " then    "velocity 	all create ${temperature} ${seed} dist gaussian"


# Always run thermo and barostat


######################################
# Run simulation with wall potential #
######################################
if " $(step) < ${nsteps_wall} " then    "fix             3 all plumed plumedfile plumed.equil.dat outfile plumed.equil.out"   "fix             1 all nph ${direction} ${pressure} ${pressure} ${pressureDamp}"   "fix             2 all temp/csvr ${temperature} ${temperature} ${tempDamp} ${seed}"   "run             ${nsteps_wall} upto"
if " $(step) == ${nsteps_wall} " then    "unfix 3"   "unfix 1"   "unfix 2"


############################
# Run enhanced coesistence #
############################
if "$(step) == ${nsteps_wall}" then    "fix             3 all plumed plumedfile plumed.start.dat outfile plumed.out" else    "fix             3 all plumed plumedfile plumed.dat outfile plumed.out"
fix             3 all plumed plumedfile plumed.dat outfile plumed.out

if "$(step) < ${nsteps_enhanced_coex_upto} && $(step) >= ${nsteps_wall} " then    "include         in.dump"    "fix             1 all nph ${direction} ${pressure} ${pressure} ${pressureDamp}"   "fix             2 all temp/csvr ${temperature} ${temperature} ${tempDamp} ${seed}"   "run             ${nsteps_enhanced_coex_upto} upto"    "unfix 3"   "unfix 1"   "unfix 2"
include         in.dump
dump            myDump all atom ${out_freq2} dump.water.${pid}
dump            myDump all atom 2000 dump.water.${pid}
dump            myDump all atom 2000 dump.water.0
dump            myDump2 all dcd ${out_freq2} dump.${pid}.dcd
dump            myDump2 all dcd 2000 dump.${pid}.dcd
dump            myDump2 all dcd 2000 dump.0.dcd
dump_modify     myDump append yes
dump_modify     myDump2 append yes

fix             1 all nph ${direction} ${pressure} ${pressure} ${pressureDamp}
fix             1 all nph z ${pressure} ${pressure} ${pressureDamp}
fix             1 all nph z 3039.75 ${pressure} ${pressureDamp}
fix             1 all nph z 3039.75 3039.75 ${pressureDamp}
fix             1 all nph z 3039.75 3039.75 1
fix             2 all temp/csvr ${temperature} ${temperature} ${tempDamp} ${seed}
fix             2 all temp/csvr 245 ${temperature} ${tempDamp} ${seed}
fix             2 all temp/csvr 245 245 ${tempDamp} ${seed}
fix             2 all temp/csvr 245 245 0.1 ${seed}
fix             2 all temp/csvr 245 245 0.1 745823
run             ${nsteps_enhanced_coex_upto} upto
run             156000000 upto

CITE-CITE-CITE-CITE-CITE-CITE-CITE-CITE-CITE-CITE-CITE-CITE-CITE

Your simulation uses code contributions which should be cited:

- USER-DEEPMD package:

@article{Wang_ComputPhysCommun_2018_v228_p178,
  author = {Wang, Han and Zhang, Linfeng and Han, Jiequn and E, Weinan},
  doi = {10.1016/j.cpc.2018.03.016},
  url = {https://doi.org/10.1016/j.cpc.2018.03.016},
  year = 2018,
  month = {jul},
  publisher = {Elsevier {BV}},
  volume = 228,
  journal = {Comput. Phys. Commun.},
  title = {{DeePMD-kit: A deep learning package for many-body potential energy representation and molecular dynamics}},
  pages = {178--184}
}

CITE-CITE-CITE-CITE-CITE-CITE-CITE-CITE-CITE-CITE-CITE-CITE-CITE

Generated 0 of 1 mixed pair_coeff terms from geometric mixing rule
Neighbor list info ...
  update every 50 steps, delay 0 steps, check no
  max neighbors/atom: 2000, page size: 100000
  master list distance cutoff = 8
  ghost atom cutoff = 8
  binsize = 4, bins = 11 9 9
  1 neighbor lists, perpetual/occasional/extra = 1 0 0
  (1) pair deepmd, perpetual
      attributes: full, newton on
      pair build: full/bin
      stencil: full/bin/3d
      bin: standard
Per MPI rank memory allocation (min/avg/max) = 7.299 | 7.301 | 7.302 Mbytes
   Step          Temp          PotEng         TotEng         E_pair         E_mol          Press            Lx             Ly             Lz           Volume          Pxx            Pyy            Pzz            Pxy            Pxz            Pyz      
 129986000   239.38526     -418.85676     -338.68351     -418.85676      0              2267.9935      31.128         21.465467      33.445377      22347.434      3180.9339      3673.8101     -50.763333      127.21142     -118.87989     -1573.668     
 129988000   251.65567     -419.43928     -335.15652     -419.42778      0              3104.5254      31.128         21.465467      33.403862      22319.695      2935.3123      2092.7006      4285.5633      911.25299      134.56527     -1493.5904    
 129990000   244.15934     -418.53448     -336.76233     -418.52287      0              2968.1035      31.128         21.465467      33.447716      22348.997      3053.56        2618.3529      3232.3975     -1484.8865      2133.0824      15.330559    
 129992000   250.93487     -420.12354     -336.08219     -420.11286      0              3880.2525      31.128         21.465467      33.297326      22248.509      2644.7178      2776.4055      6219.6342     -256.56441     -1033.8727     -689.27809    
 129994000   242.92675     -417.48509     -336.12576     -417.47025      0              2260.5052      31.128         21.465467      33.445438      22347.474      3246.1183      1959.3364      1576.0611      1169.9401      11.75911      -665.05499    
 129996000   248.19476     -415.42951     -332.30585     -415.41482      0              3387.108       31.128         21.465467      33.347727      22282.186      3152.7531      3543.1749      3465.396      -1168.4838      931.05749      108.77462    
 129998000   245.17023     -414.63093     -332.52023     -414.6171       0              3625.144       31.128         21.465467      33.148164      22148.843      2860.9708      5899.9268      2114.5345      1236.2503      281.2673      -122.84746    
 130000000   245.55767     -419.0636      -336.82313     -419.05475      0              2461.5992      31.128         21.465467      33.241322      22211.089      2961.0783      1295.1596      3128.5596      543.14353      1073.5217      492.07351    
 130002000   243.07324     -416.5686      -335.1602      -416.55725      0              3236.1704      31.128         21.465467      33.142233      22144.88       2413.1634      3641.2979      3654.05        817.49103     -650.40913     -333.37506    
 130004000   241.22234     -418.64337     -337.85486     -418.63267      0              2656.6161      31.128         21.465467      33.196948      22181.439      4277.4779      1815.4442      1876.926      -210.39143     -48.918203      232.16221    
 130006000   240.55401     -418.81637     -338.2517      -418.80557      0              2997.8379      31.128         21.465467      33.260785      22224.093      2647.6769      2511.5491      3834.2876     -745.80178     -156.54804     -1046.5241    
 130008000   246.81621     -420.13764     -337.47568     -420.12687      0              4999.6536      31.128         21.465467      33.26372       22226.054      5281.8457      4765.5824      4951.5327      470.70767      145.92879     -607.11068    
 130010000   241.00633     -414.13124     -333.41508     -414.11599      0              1811.4939      31.128         21.465467      33.444941      22347.142      3913.6786     -93.555353      1614.3585     -842.97932     -456.4882      -227.36215    
 130012000   247.02258     -413.68686     -330.95577     -413.67256      0              3467.5238      31.128         21.465467      33.371564      22298.114      4320.4978      2376.8668      3705.2067     -1658.9467      816.84679      2065.2586    
 130014000   244.9413      -418.42048     -336.38644     -418.40822      0              3549.4081      31.128         21.465467      33.368189      22295.859      4203.7401      2714.6278      3729.8565      659.34281     -2150.2796     -613.80534    
 130016000   251.8612      -414.27085     -329.91925     -414.25628      0              2683.2722      31.128         21.465467      33.37462       22300.156      4562.5416      1128.0308      2359.2444     -708.13506     -1026.6813     -2030.8458    
 130018000   244.44471     -417.74427     -335.87655     -417.73377      0              5107.4224      31.128         21.465467      33.399614      22316.856      6919.6346      3958.6613      4443.9713      1315.7262     -1635.0271     -349.90884    
 130020000   235.90192     -417.19234     -338.18571     -417.17871      0              1202.2627      31.128         21.465467      33.505422      22387.554      2669.508      -2.0730015      939.35309      1032.9226     -534.04315      51.945992    
 130022000   243.0134      -417.27985     -335.8915      -417.26563      0              2512.9008      31.128         21.465467      33.711486      22525.242      2157.3675      4051.7596      1329.5753      2294.0659      626.83782     -1157.8242    
 130024000   250.99399     -417.55099     -333.48983     -417.54023      0              3191.117       31.128         21.465467      33.509756      22390.45       4254.5022      2960.9211      2357.9276      1109.1385     -855.9374      -1018.6803    
 130026000   243.64689     -418.39856     -336.79804     -418.3859       0              6399.4149      31.128         21.465467      33.457498      22355.533      5839.7505      7284.247       6074.2473      138.08785      702.44727      840.6451     
 130028000   246.18928     -416.19285     -333.74085     -416.18127      0              2598.7043      31.128         21.465467      33.357905      22288.987      3143.5315      2163.1489      2489.4325     -586.43805     -339.10804      1374.2075    
 130030000   242.7477      -418.85831     -337.55894     -418.84763      0              1138.3091      31.128         21.465467      33.513502      22392.953      46.084511      991.69849      2377.1443     -574.00452     -2303.7845      674.01234    
 130032000   242.02159     -416.0863      -335.03012     -416.07137      0              4152.8713      31.128         21.465467      33.473266      22366.068      3290.1531      5511.7126      3656.7483     -180.29976     -680.80132     -75.756557    
 130034000   242.13215     -416.61198     -335.51877     -416.60131      0              2096.4212      31.128         21.465467      33.546708      22415.141      2752.8031      3372.6906      163.76982      374.96551     -500.50904     -176.51393    
 130036000   249.22447     -415.53424     -332.06571     -415.51989      0              4134.6463      31.128         21.465467      33.552964      22419.321      4564.532       4655.2699      3184.1371     -409.72256     -1945.1557     -1410.9928    
 130038000   245.6197      -416.90462     -334.64338     -416.88869      0              3935.8712      31.128         21.465467      33.484777      22373.76       3430.844       2994.0072      5382.7625      146.43265     -956.31401     -381.28964    
 130040000   245.7123      -414.58941     -332.29715     -414.56972      0              2380.5147      31.128         21.465467      33.651114      22484.903      538.66225      2908.4499      3694.4319      905.4717      -912.83223     -677.64706    
 130042000   242.86807     -413.65727     -332.31759     -413.63899      0              1197.4181      31.128         21.465467      33.396629      22314.861      269.27274      2088.5516      1234.4301      498.76613     -1093.9695      308.37394    
 130044000   240.86195     -416.6051      -335.93729     -416.58712      0              4459.7641      31.128         21.465467      33.362227      22291.875      3861.9237      3546.9542      5970.4144      264.34408     -1062.8441      29.670045    
 130046000   246.11616     -417.20441     -334.7769      -417.17896      0              2496.6366      31.128         21.465467      33.478744      22369.729      2723.171       1736.0601      3030.6787      621.09264     -705.5367      -1628.87      
 130048000   244.74782     -415.76228     -333.79304     -415.73369      0              2826.5752      31.128         21.465467      33.54821       22416.144      2049.7358      663.60331      5766.3865      616.65928     -493.06211     -194.27996    
 130050000   246.99485     -415.84566     -333.12386     -415.83025      0              2784.6204      31.128         21.465467      33.3425        22278.694      2488.751       3231.9         2633.2102      1618.5183      173.33363     -1157.6805    
 130052000   253.33861     -416.72929     -331.88289     -416.71422      0              4249.741       31.128         21.465467      33.37076       22297.576      3912.0537      3585.4603      5251.709       1242.7592      141.79114     -58.396791    
 130054000   242.01506     -418.63303     -337.57903     -418.61965      0              3526.1527      31.128         21.465467      33.533843      22406.544      3946.411       3454.1786      3177.8685      562.54514      318.0459      -646.44183    
 130056000   246.51307     -418.58876     -336.02832     -418.57581      0              2697.6328      31.128         21.465467      33.461953      22358.51       4627.9762      191.46132      3273.4608     -1684.5334     -173.1857       250.1271     
 130058000   253.83218     -415.80262     -330.79092     -415.78357      0              5265.2969      31.128         21.465467      33.459488      22356.862      5832.6593      6191.4702      3771.7612     -730.56653     -986.57829     -517.74444    
 130060000   243.74885     -416.40756     -334.7729      -416.38324      0              3396.9932      31.128         21.465467      33.546728      22415.154      3957.6122      3695.7305      2537.637       82.714248     -874.63622     -537.97458    
 130062000   240.58625     -415.89841     -335.32294     -415.88647      0             -486.38523      31.128         21.465467      33.326368      22267.915     -1855.3904     -288.3858       684.62052     -1473.401       1058.0323     -1180.9346    
 130064000   249.5916      -414.42195     -330.83047     -414.40474      0              2265.2786      31.128         21.465467      33.505288      22387.465      1786.9243      1923.8325      3085.0789     -759.19087     -890.1947       832.02036    
 130066000   244.46475     -416.3041      -334.42967     -416.29142      0              3538.3944      31.128         21.465467      33.398055      22315.814      3021.4993      3930.1642      3663.5198      509.1648      -331.44637      338.79305    
 130068000   237.33689     -416.32167     -336.83445     -416.3026       0              1857.5473      31.128         21.465467      33.485258      22374.081      2320.1731      1028.2775      2224.1913      827.42364     -604.12976      1331.1808    
 130070000   247.30587     -415.35304     -332.52708     -415.33801      0              3684.4823      31.128         21.465467      33.311351      22257.88       3977.1117      4764.8476      2311.4875      52.85519       119.03738      721.91784    
 130072000   241.0351      -415.39082     -334.66502     -415.36653      0              4215.9701      31.128         21.465467      33.511804      22391.819      2520.6591      4927.9089      5199.3423     -384.0061       500.46837      237.28562    
 130074000   247.6125      -417.22929     -334.30064     -417.20995      0              4789.4643      31.128         21.465467      33.495007      22380.595      4968.9325      5852.1477      3547.3128     -594.26642      370.94317      1447.9653    
 130076000   239.90459     -419.01772     -338.67055     -419.003        0              1843.945       31.128         21.465467      33.480198      22370.7        2750.8652      984.63359      1796.3363     -101.56766      2082.5747      674.9377     
 130078000   249.95452     -417.3373      -333.62427     -417.32255      0              3471.0443      31.128         21.465467      33.650152      22484.26       5384.6848      1699.9119      3328.5362     -854.92996     -1145.298      -41.169887    
 130080000   245.87897     -418.73435     -336.38627     -418.72143      0              3311.3305      31.128         21.465467      33.476884      22368.485      2993.8005      3746.2057      3193.9852      79.012687      986.02066      576.69005    
 130082000   240.71652     -417.19011     -336.57101     -417.16866      0              3401.8362      31.128         21.465467      33.366262      22294.571      3326.3896      5610.9096      1268.2093      258.79259      334.74345     -483.99084    
 130084000   239.80446     -415.94509     -335.63145     -415.91686      0              2905.8043      31.128         21.465467      33.56411       22426.768      2456.9382      3189.1499      3071.3248      124.38317     -473.88159      1013.2196    
 130086000   249.82624     -416.81804     -333.14798     -416.79585      0              3266.059       31.128         21.465467      33.699658      22517.338      2475.2248      4702.109       2620.8432     -472.2314       811.62051      16.14093     
 130088000   246.07591     -417.12117     -334.70714     -417.10348      0              2001.0192      31.128         21.465467      33.425355      22334.056      2535.7268      2289.4204      1177.9104     -315.71759      304.22844     -2.2753871    
 130090000   248.63131     -418.02953     -334.75967     -418.00257      0              3846.4641      31.128         21.465467      33.396129      22314.527      3005.3678      4669.6728      3864.3517      849.33157      181.43352      197.36304    
 130092000   247.31885     -416.71794     -333.88764     -416.69185      0              4389.8625      31.128         21.465467      33.379554      22303.452      5454.238       5007.4433      2707.9063      1710.3355      464.85007      36.169429    
 130094000   247.50134     -415.39885     -332.50742     -415.3818       0              2426.0998      31.128         21.465467      33.350445      22284.002      2842.2117      2217.174       2218.9138     -120.74545      747.33842      432.26604    
 130096000   248.62919     -417.78359     -334.51443     -417.76085      0              1684.7423      31.128         21.465467      33.653516      22486.507      911.18951      3819.3714      323.6661      -198.30103     -549.23742     -470.54651    
 130098000   241.11121     -416.32838     -335.57709     -416.31059      0              3031.2485      31.128         21.465467      33.545195      22414.129      3327.7336      4113.9197      1652.0921      879.50136      614.6562      -1467.3467    
 130100000   243.06007     -415.7787      -334.37472     -415.75829      0              972.08069      31.128         21.465467      33.808928      22590.35       2513.1571     -876.55408      1279.6391     -669.80264     -1062.1221     -392.84176    
 130102000   239.82258     -416.97754     -336.65783     -416.96389      0              2793.7389      31.128         21.465467      33.735117      22541.031      2986.0699      1778.1192      3617.0277      297.4916       849.68493     -1531.6127    
 130104000   245.59189     -416.77887     -334.52695     -416.75803      0              2126.7136      31.128         21.465467      33.41097       22324.444      2444.5348      1430.6741      2504.9319     -106.71283     -936.99842      1711.6932    
 130106000   243.16406     -415.69318     -334.25436     -415.67805      0              3263.8935      31.128         21.465467      33.529904      22403.913      3888.6423      3702.7627      2200.2754     -1223.8074     -314.1744       352.8096     
 130108000   241.13674     -414.0404      -333.28056     -414.02434      0              1889.293       31.128         21.465467      33.459954      22357.174      2016.5544      3032.0371      619.28749      523.00779     -329.35672      507.66739    
 130110000   248.76211     -415.77192     -332.45825     -415.75582      0              3638.4926      31.128         21.465467      33.397288      22315.301      4535.5759      3708.7932      2671.1087     -379.43108     -603.64607      305.1537     
 130112000   251.86436     -416.3451      -331.99244     -416.32147      0              2694.3326      31.128         21.465467      33.48069       22371.029      2662.5906      2844.8773      2575.5298      817.18381      309.60474     -218.47579    
 130114000   246.25167     -416.39911     -333.92621     -416.38447      0              1813.9153      31.128         21.465467      33.561666      22425.135      2095.731       1992.3587      1353.6562      82.917426     -13.090008      364.72139    
 130116000   242.30626     -415.98856     -334.83704     -415.97623      0              3124.4191      31.128         21.465467      33.492712      22379.062      3536.2948      3569.3817      2267.5807     -230.37299      294.29976     -13.233271    
 130118000   241.20423     -417.12421     -336.34177     -417.11048      0              1074.5256      31.128         21.465467      33.456152      22354.633      91.693054      411.07257      2720.8113      174.93384     -674.07255     -495.02313    
 130120000   244.48221     -416.07115     -334.19087     -416.05718      0              1664.3922      31.128         21.465467      33.509498      22390.278      427.55733      3109.2541      1456.3653      1480.6782      1438.913       294.81925    
 130122000   236.76719     -414.04746     -334.75104     -414.02602      0              4030.9992      31.128         21.465467      33.458817      22356.414      3550.8715      4481.2789      4060.8471     -1258.5496     -58.552602      52.372161    
 130124000   240.28308     -413.37167     -332.89773     -413.35401      0              2436.6398      31.128         21.465467      33.338041      22275.714      2018.8673      2040.747       3250.3052      122.50654      521.55939      1223.106     
 130126000   252.5005      -416.82419     -332.25848     -416.8115       0              3215.8909      31.128         21.465467      33.463409      22359.482      3390.1493      2762.3765      3495.1469      308.06789      726.6737       576.46491    
 130128000   248.62059     -417.54711     -334.28083     -417.5342       0              3694.6091      31.128         21.465467      33.538066      22409.366      4676.9575      4015.7976      2391.0722      903.30821      556.70247     -310.76252    
 130130000   250.31746     -417.93856     -334.10398     -417.92422      0              2379.735       31.128         21.465467      33.601464      22451.728      2655.5683      1853.0693      2630.5673      459.44966     -1015.5061      790.1722     
 130132000   244.9991      -417.52449     -335.47109     -417.50581      0              3677.3711      31.128         21.465467      33.563281      22426.214      4141.2655      3710.368       3180.4798     -1010.7093      1533.3591      770.06382    
 130134000   245.97569     -418.41452     -336.03406     -418.38992      0              2515.4275      31.128         21.465467      33.60576       22454.598      2233.5936      4366.2963      946.39262     -962.52332      320.95869     -1017.7158    
 130136000   240.97994     -416.77077     -336.06345     -416.75115      0              5409.653       31.128         21.465467      33.276887      22234.852      6131.6947      4943.4733      5153.7911     -1184.1539      141.36181      992.08524    
 130138000   245.44644     -418.88821     -336.68499     -418.86227      0              2632.3118      31.128         21.465467      33.555445      22420.979      3960.9484      3241.9907      693.99631     -687.27276      52.002982     -204.97688    
 130140000   247.41137     -416.97155     -334.11026     -416.95158      0              3225.919       31.128         21.465467      33.374848      22300.308      2967.8599      1508.4488      5201.4482     -1390.2956      875.33849      1191.9656    
 130142000   239.49238     -418.8446      -338.63549     -418.82294      0              4239.6469      31.128         21.465467      33.294319      22246.5        3004.3059      5564.7583      4149.8766      1143.6957     -960.41399     -725.98227    
 130144000   241.32358     -418.40421     -337.5818      -418.39335      0              4436.5757      31.128         21.465467      33.263287      22225.765      5385.6629      4406.9544      3517.1099     -16.62993      -1558.6214      730.8447     
 130146000   248.6744      -417.90857     -334.62427     -417.88615      0              4794.2899      31.128         21.465467      33.399231      22316.6        5480.0223      2997.3954      5905.452      -512.07309      675.98889     -715.91169    
 130148000   245.43273     -416.1535      -333.95488     -416.13829      0              1788.1032      31.128         21.465467      33.278155      22235.7        3319.7345     -340.72996      2385.3051      808.84103     -617.48721      1487.8865    
 130150000   245.40355     -416.70426     -334.51541     -416.68883      0              4546.8342      31.128         21.465467      33.417698      22328.939      5606.2547      3066.4024      4967.8454     -247.85403      845.54442      230.77315    
 130152000   245.15359     -415.92265     -333.81752     -415.90476      0              4514.2434      31.128         21.465467      33.412528      22325.484      4258.2137      3305.735       5978.7816     -341.70287     -317.391        583.65063    
 130154000   244.70052     -417.07029     -335.1169      -417.05119      0              2618.3252      31.128         21.465467      33.504871      22387.186      2206.4628      3627.5216      2020.9912      641.01545      1704.0528     -1533.413     
 130156000   242.99882     -414.86544     -333.48197     -414.84336      0              3133.4903      31.128         21.465467      33.337493      22275.348      3020.5202      3713.4195      2666.5313      1042.7216     -729.42416      29.372942    
 130158000   243.99446     -416.94782     -335.23089     -416.91735      0              3049.9925      31.128         21.465467      33.52715       22402.072      2617.6569      3463.5518      3068.7688     -821.97988      1946.0529     -746.37549    
 130160000   237.69776     -416.77964     -337.17156     -416.75548      0              3517.9325      31.128         21.465467      33.436279      22341.355      2716.0018      5853.5025      1984.2934      221.10536      1033.0129     -377.29245    
 130162000   237.17539     -418.65187     -339.21874     -418.62518      0              2410.0985      31.128         21.465467      33.454708      22353.668      3414.6052      1312.3709      2503.3193     -186.47611      162.77728     -286.53084    
 130164000   242.59979     -413.99371     -332.74388     -413.97329      0              3661.8469      31.128         21.465467      33.548603      22416.407      3232.2388      3455.2659      4298.036       902.23306     -283.72393     -608.9243     
 130166000   248.55406     -418.24011     -334.99611     -418.20946      0              2830.575       31.128         21.465467      33.566171      22428.146      4469.0908      1895.883       2126.7512      304.39325     -909.1639      -619.99432    
 130168000   243.3419      -417.19597     -335.69759     -417.16193      0              2740.9924      31.128         21.465467      33.483205      22372.709      3045.2783      2260.6747      2917.0243     -834.12054     -1787.5073      669.73796    
 130170000   247.77113     -417.64333     -334.66154     -417.6208       0              4059.7127      31.128         21.465467      33.471635      22364.979      3427.2656      3231.1388      5520.7339     -248.29382      1602.1378      425.79827    
 130172000   248.46736     -416.53366     -333.31871     -416.50548      0              3082.3991      31.128         21.465467      33.666283      22495.038      1614.2627      3386.3726      4246.5621      273.26877      695.56675      2072.467     
 130174000   240.6067      -415.19491     -334.61259     -415.17054      0              711.61878      31.128         21.465467      33.738855      22543.529      1699.2313      340.5709       95.054145     -800.5095       1104.5502     -537.02423    
 130176000   257.17691     -417.77038     -331.63848     -417.743        0              2210.469       31.128         21.465467      33.682966      22506.185      1512.1973      1742.443       3376.7667      977.29823     -397.03974      593.68106    
 130178000   243.2159      -415.55398     -334.0978      -415.52143      0              2350.2716      31.128         21.465467      33.849457      22617.431      2272.7439      2919.8369      1858.2341     -678.02831     -1068.9245     -929.02932    
 130180000   242.34949     -416.99209     -335.82608     -416.96627      0              2633.905       31.128         21.465467      33.586243      22441.557      1368.1435      2843.9445      3689.6269     -488.167        366.63518     -116.8415     
 130182000   246.4878      -414.5849      -332.03293     -414.56328      0              3452.831       31.128         21.465467      33.642064      22478.856      5122.1069      3874.9649      1361.4212     -158.94817     -225.8823       665.34602    
 130184000   251.0208      -418.33559     -334.26545     -418.31851      0              3452.3619      31.128         21.465467      33.78607       22575.077      3583.498       2271.3941      4502.1936      368.53663     -242.33782     -1551.3034    
 130186000   245.53418     -417.50744     -335.27484     -417.47867      0              1042.6067      31.128         21.465467      33.735207      22541.091      1939.6414     -455.55539      1643.7342      2508.8553     -1248.6677     -33.781682    
 130188000   247.37572     -416.28614     -333.43678     -416.26182      0              3322.3875      31.128         21.465467      33.662204      22492.312      2692.1857      2513.8488      4761.128      -187.09858      420.89319      297.99846    
 130190000   243.82317     -416.8121      -335.15254     -416.79372      0              552.24449      31.128         21.465467      33.746906      22548.909     -1027.1822      2154.1452      529.77049     -736.8378      -820.17118      33.567523    
 130192000   240.51042     -417.45253     -336.90245     -417.42918      0              2615.1762      31.128         21.465467      33.75792       22556.268      2946.9066      4011.0378      887.58425      741.70566      487.81668     -805.44706    
 130194000   244.02893     -416.23424     -334.50577     -416.21601      0              2519.768       31.128         21.465467      33.690118      22510.964      2885.1871      3308.6856      1365.4312      43.515118     -106.93511     -2557.3635    
 130196000   244.15347     -416.04397     -334.27379     -416.0215       0              3231.8027      31.128         21.465467      33.62545       22467.754      2438.3467      3125.214       4131.8473      848.16854      1342.0073      1180.548     
 130198000   241.43198     -417.63951     -336.7808      -417.61522      0              3913.7624      31.128         21.465467      33.669716      22497.332      5124.032       1516.8947      5100.3607     -1874.6083     -656.81951      1221.3124    
 130200000   244.34748     -414.36206     -332.52691     -414.32796      0              1520.6643      31.128         21.465467      33.596259      22448.25       977.21759      1745.9491      1838.8262      888.40087     -137.7226      -592.66129    
 130202000   241.52191     -416.89966     -336.01082     -416.88017      0              2589.7224      31.128         21.465467      33.685402      22507.813      3527.6151      1414.7667      2826.7854     -779.87279      786.98087     -342.71473    
 130204000   249.61764     -417.20968     -333.60947     -417.19491      0              2502.3461      31.128         21.465467      33.393376      22312.687      2318.4384      1284.9711      3903.6288      1932.685      -1590.2955     -1519.7076    
 130206000   243.8462      -417.79754     -336.13027     -417.77941      0              4967.9097      31.128         21.465467      33.514902      22393.889      3426.2527      6966.3201      4511.1563      530.61977     -266.22406     -1439.3494    
 130208000   240.79069     -418.58757     -337.94363     -418.57099      0              1893.5305      31.128         21.465467      33.631026      22471.48       1390.2501      2696.0962      1594.2451      2049.8788      840.66897     -244.50215    
 130210000   246.33984     -415.67666     -333.17424     -415.65636      0              4571.5261      31.128         21.465467      33.386024      22307.775      5186.7165      3054.1563      5473.7055      89.462498     -252.78888      1955.4078    
 130212000   237.58501     -415.51697     -335.94665     -415.50169      0              2898.1214      31.128         21.465467      33.456573      22354.915      2863.8186      4208.8044      1621.7411     -460.7643       485.15124      1253.4652    
 130214000   253.72327     -417.03899     -332.06376     -417.02154      0              4848.7692      31.128         21.465467      33.445217      22347.327      3841.8816      5322.3259      5382.1         554.4389      -586.30241      132.84956    
 130216000   242.32031     -417.00634     -335.85011     -416.98221      0              1427.4421      31.128         21.465467      33.448782      22349.708      1820.3637      1941.0285      520.93408     -735.90834      321.71181      1018.0839    
 130218000   247.92371     -419.18568     -336.15279     -419.16999      0              4044.4706      31.128         21.465467      33.460935      22357.829      4390.8743      3996.4386      3746.099      -837.60126      1224.1573      1706.769     
 130220000   247.68346     -416.94571     -333.99329     -416.93057      0              1070.9253      31.128         21.465467      33.379511      22303.424     -207.55402      751.32503      2669.0048      65.910413     -463.62074      1870.3711    
 130222000   242.07971     -417.18542     -336.10977     -417.16598      0              2322.0947      31.128         21.465467      33.51921       22396.767     -274.3032       4848.2578      2392.3294      374.26603      177.20158      1072.4411    
 130224000   246.8359      -417.66298     -334.99442     -417.65188      0              3714.1334      31.128         21.465467      33.417654      22328.91       4913.6981      2519.2877      3709.4144      858.43674     -175.76881      760.92967    
 130226000   244.93975     -417.38762     -335.3541      -417.37475      0              3227.9874      31.128         21.465467      33.457781      22355.722      3847.3892      956.80219      4879.7707      284.8306      -167.54869      113.4307     
 130228000   246.41958     -415.39644     -332.8673      -415.37824      0              3383.2977      31.128         21.465467      33.367876      22295.649      2770.7182      3555.0389      3824.1359      145.4365       509.07064      1070.9924    
 130230000   243.01636     -417.06009     -335.67074     -417.04712      0              2618.432       31.128         21.465467      33.341636      22278.117      3287.7439      3030.5762      1536.976       19.864476      239.21285      825.92576    
 130232000   246.74336     -416.85776     -334.22019     -416.84565      0              4126.7824      31.128         21.465467      33.367488      22295.39       3182.5999      4495.1593      4702.5879      1816.8493     -591.80927      570.49814    
 130234000   244.90922     -417.7454      -335.7221      -417.73384      0              4036.6623      31.128         21.465467      33.452426      22352.144      3420.1457      4510.996       4178.8451      2343.7273     -1049.2817     -1021.4564    
 130236000   247.16001     -414.17903     -331.40192     -414.16621      0              4573.4998      31.128         21.465467      33.150488      22150.396      4037.1115      5839.7076      3843.6804     -141.70685      588.46689      497.19088    
 130238000   241.75481     -418.6103      -337.64346     -418.5969       0              2310.7231      31.128         21.465467      33.294727      22246.773      1336.8365      2542.1611      3053.1717     -512.34968      1910.3878     -728.45185    
 130240000   244.2056      -416.68281     -334.89518     -416.67223      0              3106.3324      31.128         21.465467      33.468575      22362.934      2050.477       1890.974       5377.5463      66.332232      1787.3721      903.31534    
 130242000   245.65721     -415.63418     -333.36038     -415.61886      0              4785.292       31.128         21.465467      33.463455      22359.513      3053.4919      4515.6976      6786.6864      1072.3732     -404.71156      1135.7073    
 130244000   241.19479     -418.33917     -337.55989     -418.32642      0              1524.256       31.128         21.465467      33.328649      22269.438      1092.6746      1883.7467      1596.3467      259.47318      423.92196      406.39099    
 130246000   237.567       -419.16863     -339.60435     -419.15811      0              4132.8291      31.128         21.465467      33.234238      22206.356      6056.8479      2119.0695      4222.5698     -1419.7405     -23.965443      901.35762    
 130248000   246.25307     -417.81381     -335.34045     -417.80061      0              3341.777       31.128         21.465467      33.421862      22331.721      4214.6799      1038.5774      4772.0738      571.57669      908.26922      967.8515     
 130250000   241.41912     -416.86363     -336.00922     -416.85144      0              47.660543      31.128         21.465467      33.474347      22366.791     -190.76976     -429.55768      763.30907      644.23415      597.13567      2019.9393    
 130252000   237.43256     -417.23682     -337.71756     -417.22443      0              2827.3897      31.128         21.465467      33.48414       22373.334      4083.2783      1606.8067      2792.0841      1347.4315      1233.4912      1768.331     
 130254000   241.74207     -417.39429     -336.43171     -417.38209      0              2447.4932      31.128         21.465467      33.425473      22334.134      2706.4742      353.90285      4282.1027     -1051.1192      1348.2582      610.85699    
 130256000   236.32566     -415.19293     -336.04439     -415.18024      0              3337.395       31.128         21.465467      33.37321       22299.213      4127.9772      4734.7388      1149.4691      554.63162     -2262.7138      645.26008    
 130258000   246.18339     -414.52496     -332.07494     -414.50671      0              1958.3369      31.128         21.465467      33.592814      22445.948      1982.6799      1998.5194      1893.8114     -807.31424     -266.46196     -560.44288    
 130260000   247.5623      -415.37716     -332.46532     -415.36471      0              1696.4573      31.128         21.465467      33.620925      22464.731      845.01399      1914.972       2329.3859     -1181.3492      310.74485     -482.76158    
 130262000   247.4592      -416.95905     -334.08174     -416.94554      0              2406.551       31.128         21.465467      33.483929      22373.193      2266.6775      3491.1894      1461.7861      906.43448      81.8661        641.27467    
 130264000   242.65404     -416.76136     -335.49336     -416.74948      0              2930.7322      31.128         21.465467      33.41407       22326.515      2736.8065      2053.4969      4001.8931      1656.1184      318.00719      657.10858    
 130266000   254.74909     -417.7253      -332.40651     -417.71356      0              2994.4405      31.128         21.465467      33.423742      22332.978      1151.8192      5739.5858      2091.9163     -132.04186      69.162941     -201.6929     
 130268000   247.48282     -416.84876     -333.96354     -416.83719      0              3071.6799      31.128         21.465467      33.29669       22248.084      2723.3341      1363.1167      5128.5889      1260.8305     -278.69195      2241.3948    
 130270000   245.96749     -414.90751     -332.52979     -414.89566      0              2166.757       31.128         21.465467      33.283654      22239.374      2779.8166      324.46336      3395.9912     -1448.3433      742.10938      1145.4149    
 130272000   241.82403     -419.34994     -338.35992     -419.33831      0              4363.9423      31.128         21.465467      33.197794      22182.004      5314.964       3990.0528      3786.8102      731.85631     -702.39265      477.61646    
 130274000   237.81742     -418.73564     -339.08748     -418.72495      0              2644.1267      31.128         21.465467      33.331603      22271.412      3931.8422      569.57298      3430.9649     -1776.4975      975.45748      886.67928    
 130276000   245.40352     -416.55401     -334.36517     -416.54325      0              2224.8937      31.128         21.465467      33.190398      22177.062      1523.9304      1980.6321      3170.1186     -800.87799      1726.1516      179.4992     
 130278000   244.6373      -415.66845     -333.73623     -415.65245      0              2624.1852      31.128         21.465467      33.478986      22369.89       2596.3882      3105.1323      2171.0351      1712.3427     -977.02695      600.69177    
 130280000   245.43177     -417.95168     -335.75338     -417.93931      0              3649.2874      31.128         21.465467      33.430148      22337.258      2717.0531      4069.0239      4161.7853      1107.8536      1447.726      -301.58596    
 130282000   243.02145     -415.5142      -334.12315     -415.50216      0              5126.3372      31.128         21.465467      33.33113       22271.096      5813.1622      4317.3976      5248.452       1154.2007      120.50512     -109.49454    
 130284000   242.25257     -417.14186     -336.00831     -417.12851      0              1577.4574      31.128         21.465467      33.208723      22189.307      923.68135      3609.7612      198.92967     -944.46115      1775.6625     -1105.0848    
 130286000   247.86171     -416.70441     -333.69229     -416.69363      0              4408.0845      31.128         21.465467      33.103183      22118.788      4241.8967      5796.6045      3185.7524      203.75218     -351.01728     -643.27229    
 130288000   243.15911     -416.83093     -335.39378     -416.81912      0              3465.2919      31.128         21.465467      33.248186      22215.675      4340.9617      1421.9416      4632.9725      237.79886     -757.83386      263.58332    
 130290000   245.51721     -418.55141     -336.32449     -418.54079      0              1791.4982      31.128         21.465467      33.316637      22261.413      228.22559      2297.9489      2848.3201     -870.36203      190.87311      302.10896    
 130292000   247.48771     -418.37202     -335.48517     -418.36152      0              2175.6549      31.128         21.465467      33.411017      22324.475      2221.3151      2289.4444      2016.2051      511.32446      942.89624      934.79198    
 130294000   241.8911      -417.26831     -336.25583     -417.25776      0              1458.3436      31.128         21.465467      33.380436      22304.041      3363.071       1404.0679     -392.10817     -2169.7613     -383.23385     -68.74326     
 130296000   252.96345     -418.80402     -334.08327     -418.79128      0              2437.9403      31.128         21.465467      33.415134      22327.226      176.44536      4510.3814      2626.9941     -593.31908      902.45955     -1025.2403    
 130298000   242.61124     -414.8115      -333.55784     -414.79862      0              2505.9807      31.128         21.465467      33.457062      22355.241      1551.7149      2186.6297      3779.5975     -1725.8468      765.81894      1177.8533    
 130300000   251.92104     -416.73732     -332.36568     -416.72658      0              3016.5991      31.128         21.465467      33.44425       22346.68       3386.4905      2957.5         2705.8068      704.44746      211.35838      474.9188     
 130302000   242.58844     -415.44819     -334.20216     -415.43325      0              3527.9661      31.128         21.465467      33.515898      22394.554      3767.8867      3481.3899      3334.6218     -396.09105     -142.41795     -985.94679    
 130304000   245.58767     -418.43021     -336.1797      -418.41772      0              3185.3442      31.128         21.465467      33.33722       22275.166      2579.6558      4032.5817      2943.795      -217.00828      1471.6545      514.09524    
 130306000   243.25562     -416.61212     -335.14264     -416.59946      0              3181.3003      31.128         21.465467      33.392351      22312.003      1591.8045      4026.1594      3925.937      -232.82259     -457.00877      320.05525    
 130308000   245.885       -418.62137     -336.27128     -418.61043      0              3783.8648      31.128         21.465467      33.521467      22398.275      4132.6581      5017.5477      2201.3887      966.30244      477.66158      1579.139     
 130310000   242.28384     -418.91317     -337.76916     -418.90239      0              2795.5293      31.128         21.465467      33.540326      22410.876      4177.579       2685.5184      1523.4906      731.84575     -1684.8716      1705.2208    
 130312000   245.39407     -419.69396     -337.50828     -419.68117      0              3193.4501      31.128         21.465467      33.476907      22368.501      1962.4404      3345.495       4272.4148      22.223047      529.72405     -1318.1256    
 130314000   248.83855     -420.14685     -336.80758     -420.13453      0              5015.7572      31.128         21.465467      33.443875      22346.43       4105.8769      5150.9593      5790.4353      197.09656      1522.1204      2515.8446    
 130316000   249.47529     -417.35967     -333.80715     -417.3395       0              3254.4656      31.128         21.465467      33.477064      22368.606      2229.6283      2221.0776      5312.6911      1045.1791      471.57189     -308.17908    
 130318000   248.44125     -415.42875     -332.22253     -415.4112       0              2600.1141      31.128         21.465467      33.541721      22411.808      2084.9801      3085.7171      2629.645      -226.55367     -1482.0239     -323.76436    
 130320000   246.21459     -415.54352     -333.08304     -415.52533      0              2766.4786      31.128         21.465467      33.526848      22401.871      751.23538      3950.1655      3598.035       365.22968      914.72209      1527.2046    
 130322000   241.5347      -414.61619     -333.72307     -414.59768      0              1404.7161      31.128         21.465467      33.653953      22486.799      473.2243       1112.7713      2628.1528     -968.16631      321.97955     -60.50426     
 130324000   240.7122      -418.22787     -337.61022     -418.21473      0              4559.4055      31.128         21.465467      33.405338      22320.681      5818.4412      5344.8624      2514.9131      354.05714     -152.10743      689.81632    
 130326000   252.47454     -418.20438     -333.64736     -418.19187      0              2120.0436      31.128         21.465467      33.483565      22372.95       1966.229       1647.5262      2746.3756     -678.99778      359.2801       2448.3581    
 130328000   234.13197     -414.56008     -336.14624     -414.54384      0              3149.3823      31.128         21.465467      33.628233      22469.614      2112.2286      3635.0035      3700.9147     -19.729181      650.02871      1494.7819    
 130330000   240.2622      -418.9902      -338.52325     -418.97773      0              1203.5511      31.128         21.465467      33.649929      22484.111      2649.4662      400.26355      560.92359     -731.10159      539.43803      680.2162     
 130332000   237.74986     -417.91961     -338.29408     -417.90213      0              1853.5982      31.128         21.465467      33.583609      22439.797     -236.10243      3310.2256      2486.6713      800.71784      1002.4915      896.11206    
 130334000   242.61204     -420.2118      -338.95786     -420.19752      0              3090.3137      31.128         21.465467      33.556609      22421.756      1866.7849      4761.6892      2642.467       161.57552     -446.83403     -593.31972    
 130336000   248.46        -419.81791     -336.60542     -419.80581      0              1166.3586      31.128         21.465467      33.739719      22544.106      2990.1634      410.72034      98.192026     -485.96405     -260.68557      1634.3955    
 130338000   248.97089     -418.70501     -335.32141     -418.68964      0              2948.6207      31.128         21.465467      33.731591      22538.675      1889.227       3831.2564      3125.3786      1356.8563      1009.037       1590.0136    
 130340000   249.28696     -417.59526     -334.10581     -417.5831       0              5338.4555      31.128         21.465467      33.433893      22339.76       4530.4579      6008.0815      5476.827      -12.973802      98.275792      458.15606    
 130342000   245.71003     -417.46652     -335.17503     -417.45267      0              2234.0489      31.128         21.465467      33.58083       22437.94       1265.0485      2979.9883      2457.11       -1456.2698      661.41418      1702.4956    
 130344000   243.75893     -418.64        -337.00196     -418.61909      0              3752.0278      31.128         21.465467      33.641895      22478.743      4565.3424      2925.2321      3765.5089     -165.42221     -605.87998     -178.33649    
 130346000   239.27881     -416.21122     -336.07363     -416.19351      0              792.87071      31.128         21.465467      33.642775      22479.33       1155.0436      1229.1281     -5.5595715      667.50883      48.577041      1498.1995    
 130348000   243.46828     -418.69258     -337.15188     -418.67493      0              2896.9792      31.128         21.465467      33.639903      22477.411      1511.5152      1921.9017      5257.5207     -650.24816      964.40383      2773.9649    
 130350000   248.72326     -416.22907     -332.92841     -416.20861      0              2770.9368      31.128         21.465467      33.561749      22425.191      1929.9094      3282.7303      3100.1707     -1330.9715      1155.784      -210.88288    
 130352000   242.78858     -414.50869     -333.19563     -414.48589      0              2157.4328      31.128         21.465467      33.463698      22359.676     -271.44217      4599.9327      2143.8079      592.9497       321.44879     -131.47149    
 130354000   243.54355     -416.46775     -334.90184     -416.44883      0              3705.0409      31.128         21.465467      33.475017      22367.238      2042.6272      5464.2553      3608.24        217.44199      1296.0246      1291.7996    
 130356000   249.37816     -417.42289     -333.90289     -417.39568      0              4574.0634      31.128         21.465467      33.637067      22475.517      4672.9355      5562.004       3487.2507     -2168.4381      238.27691      545.21953    
 130358000   247.03446     -417.01124     -334.27618     -416.98532      0             -160.81186      31.128         21.465467      33.656476      22488.485     -1188.5651      527.52547      178.60403     -1281.789       1446.2638      1784.2974    
 130360000   242.2355      -415.31772     -334.18989     -415.30044      0              4369.2807      31.128         21.465467      33.557117      22422.096      3347.4384      4809.8021      4950.6016      1289.2909     -919.70252     -592.86427    
 130362000   252.0915      -417.13862     -332.70989     -417.11975      0              2789.1574      31.128         21.465467      33.321587      22264.72       2748.3412      3313.5809      2305.5501     -1784.7628      936.85406     -882.50183    
 130364000   242.3735      -417.55153     -336.37749     -417.53156      0              2525.7085      31.128         21.465467      33.43904       22343.199      2614.4426      2616.0299      2346.6531     -54.273638      431.34749     -67.527428    
 130366000   238.29202     -419.98132     -340.17422     -419.96133      0              1390.98        31.128         21.465467      33.621129      22464.867      2924.4115      1697.7016     -449.17322     -824.49212      19.149032     -867.08221    
 130368000   245.85162     -417.69402     -335.35511     -417.67111      0              1964.8574      31.128         21.465467      33.610645      22457.862      1329.4821      2390.5448      2174.5453      102.00418     -458.26435      1848.4888    
 130370000   244.6686      -418.17938     -336.23668     -418.15471      0              3089.4635      31.128         21.465467      33.637846      22476.037      894.63642      2813.5618      5560.1923     -209.43504      567.65207      1257.2558    
 130372000   250.36538     -418.67793     -334.8273      -418.65937      0              1385.0699      31.128         21.465467      33.605186      22454.214     -1.8911905      1411.2707      2745.8303      2509.6823     -871.67992      2667.5443    
 130374000   240.88465     -418.13594     -337.46053     -418.1206       0              2899.7083      31.128         21.465467      33.686613      22508.622      1778.2108      2636.1578      4284.7563     -125.23992     -709.63859      731.79854    
 130376000   242.12186     -422.07688     -340.98711     -422.0564       0              2281.9766      31.128         21.465467      33.695048      22514.258      894.92213      2201.6122      3749.3956     -23.802822     -1376.6513      1080.3094    
 130378000   244.22516     -419.83127     -338.03708     -419.80888      0              1445.9952      31.128         21.465467      33.576859      22435.287      1681.461       1539.6887      1116.8359      2.1876688     -913.6062       578.00978    
 130380000   242.99413     -419.08732     -337.70542     -419.06139      0              4519.5231      31.128         21.465467      33.623276      22466.301      3603.2378      4429.757       5525.5744     -1580.9678      594.76612      1178.0447    
 130382000   239.45636     -418.06718     -337.87012     -418.04935      0              2329.8429      31.128         21.465467      33.525624      22401.053      1728.6189      1601.7951      3659.1147     -833.25295      1345.1338      1575.3065    
 130384000   243.21677     -417.90996     -336.45349     -417.89379      0              3783.1423      31.128         21.465467      33.55925       22423.521      3469.9991      3283.1422      4596.2856     -560.12241      533.66461      257.30087    
 130386000   239.08495     -420.31553     -340.24286     -420.30228      0              1302.0834      31.128         21.465467      33.533837      22406.54       1.3287379      1442.787       2462.1346     -1217.0553      567.91506      220.65091    
 130388000   238.94479     -417.54075     -337.51503     -417.52621      0              2311.5837      31.128         21.465467      33.508423      22389.559      2692.0781      14.73932       4227.9336     -941.78268     -966.28732      251.79028    
 130390000   244.94235     -421.79372     -339.75934     -421.77574      0              4460.0052      31.128         21.465467      33.486541      22374.939      5062.8173      3660.0219      4657.1764      606.29239     -395.92444      8.3640614    
 130392000   250.81604     -418.63887     -334.6373      -418.62197      0              2934.3015      31.128         21.465467      33.672164      22498.967      2676.57        3387.3844      2738.9501      1236.629       113.50201     -683.5892     
 130394000   249.15996     -417.58492     -334.138       -417.56108      0              3917.7674      31.128         21.465467      33.558788      22423.212      3530.8712      3431.746       4790.685      -578.76326      642.3749      -899.9229     
 130396000   241.35384     -416.73998     -335.90744     -416.72348      0              2516.1086      31.128         21.465467      33.529679      22403.762      2934.6653      2663.34        1950.3203      1152.1812      1463.565      -577.72848    
 130398000   244.62121     -417.6247      -335.69786     -417.61258      0              4050.8812      31.128         21.465467      33.412978      22325.786      5513.7282      3258.9449      3379.9706     -469.3016       301.6521      -33.480733    
 130400000   242.21007     -417.76663     -336.64732     -417.74833      0              3951.4708      31.128         21.465467      33.679866      22504.114      4378.6671      3309.1141      4166.6312     -812.33135      1213.4028      32.290309    
 130402000   247.88116     -417.96114     -334.94251     -417.93575      0             -385.60742      31.128         21.465467      33.777901      22569.619     -478.71055     -95.804461     -582.30725      869.24064      365.1276       704.53041    
 130404000   242.5088      -416.86492     -335.64556     -416.84304      0              2003.3156      31.128         21.465467      33.731794      22538.811      2669.0307      2086.2994      1254.6166     -110.81357     -455.26373      1610.8667    
 130406000   243.23783     -416.83482     -335.3713      -416.81373      0              2617.1983      31.128         21.465467      33.65033       22484.379      1476.1057      2691.0088      3684.4804      1458.5178     -774.59679     -487.39888    
 130408000   246.5289      -415.88007     -333.31433     -415.85708      0              2090.2754      31.128         21.465467      33.610174      22457.547      1034.3651      2224.4623      3011.9987      1414.3109     -1461.2079      829.04538    
 130410000   244.41721     -418.43248     -336.57397     -418.40984      0              3087.3823      31.128         21.465467      33.648053      22482.857      1507.436       4165.1291      3589.5818      2322.8873      243.29674      804.63374    
 130412000   243.85624     -416.45005     -334.77942     -416.42415      0              2647.3634      31.128         21.465467      33.572207      22432.178      2058.0728      3006.7794      2877.2379     -1109.8872     -324.07521      1635.1794    
 130414000   243.0426      -416.74626     -335.34812     -416.72131      0              4051.8728      31.128         21.465467      33.466107      22361.285      4299.2211      3090.3421      4766.0551      2469.569      -479.88854      1425.1158    
 130416000   240.98288     -417.05502     -336.34671     -417.04103      0              1874.6666      31.128         21.465467      33.407811      22322.333      1180.4163      2636.7032      1806.8802      654.90207     -1283.7732     -69.807464    
 130418000   252.08421     -418.50727     -334.08098     -418.49119      0              3863.2496      31.128         21.465467      33.472534      22365.579      1846.6777      5524.9836      4218.0874      102.51088      1807.2342     -330.4493     
 130420000   243.02362     -417.57316     -336.18139     -417.55289      0              3126.0446      31.128         21.465467      33.69565       22514.661      2834.2022      3021.0811      3522.8505      618.48238     -598.45015      129.24421    
 130422000   243.14333     -419.91333     -338.48146     -419.89903      0              2325.8126      31.128         21.465467      33.472607      22365.628      1513.4162      1609.034       3854.9876     -800.29256      573.63955      177.19827    
 130424000   242.90535     -419.29531     -337.94314     -419.28182      0              3761.9011      31.128         21.465467      33.426696      22334.951      5355.0985      3424.675       2505.9299      685.59842     -220.89322     -276.48468    
 130426000   245.61577     -419.44412     -337.1842      -419.43179      0              2674.8452      31.128         21.465467      33.538464      22409.632      2795.202       2404.6666      2824.6671     -64.559511     -658.68834     -747.34742    
 130428000   244.77875     -419.05742     -337.07783     -419.04653      0              3695.953       31.128         21.465467      33.465742      22361.041      2287.4413      3190.7065      5609.7112     -550.29782     -539.81557      603.23312    
 130430000   238.76683     -417.55895     -337.59282     -417.54533      0              1759.4648      31.128         21.465467      33.536662      22408.428      2251.3552      348.97823      2678.061       763.09327      1310.0048      1269.1756    
 130432000   247.86017     -417.53222     -334.52062     -417.5128       0              4984.4986      31.128         21.465467      33.507218      22388.754      4896.2243      4813.0971      5244.1745      245.03348     -730.31343     -1150.7516    
 130434000   240.45311     -417.1649      -336.63402     -417.15258      0              2219.018       31.128         21.465467      33.405894      22321.052      2054.6765      731.70338      3870.6741      1297.0062      1905.2847      1102.5234    
 130436000   246.75356     -417.97463     -335.33365     -417.96302      0              3821.1885      31.128         21.465467      33.437261      22342.01       1598.2028      4280.3552      5585.0073     -1378.3132     -734.70296     -174.35256    
 130438000   245.1728      -418.43278     -336.32122     -418.42015      0              3557.978       31.128         21.465467      33.442301      22345.378      3911.6835      2354.7144      4407.5363     -647.83641     -736.17745      778.33176    
 130440000   253.03978     -417.32712     -332.5808      -417.31269      0              4514.2019      31.128         21.465467      33.428401      22336.09       2715.6275      5676.1549      5150.8232      407.06599     -361.24482     -436.23154    
 130442000   245.25841     -417.62361     -335.48337     -417.61112      0              2599.8778      31.128         21.465467      33.289912      22243.556      3010.9305     -735.48982      5524.1928      1659.5471     -465.22998      782.62063    
 130444000   243.60959     -419.86787     -338.27984     -419.8559       0              3215.6977      31.128         21.465467      33.272663      22232.03       3069.2338      1720.4457      4857.4136     -338.99024      155.71348     -1613.2903    
 130446000   240.76927     -415.47535     -334.83858     -415.46131      0              2511.4721      31.128         21.465467      33.34236       22278.6        1285.5678      2772.6448      3476.2036      1330.7139      413.36771      1278.2971    
 130448000   247.27255     -417.0704      -334.2556      -417.04406      0              3702.4021      31.128         21.465467      33.509286      22390.136      5467.955       3272.0752      2367.176       787.90881      864.21674     -1115.178     
 130450000   243.44384     -415.63251     -334.09999     -415.61033      0              3036.0491      31.128         21.465467      33.48622       22374.724      1002.3978      4561.88        3543.8695      957.73724     -659.98362     -377.00318    
 130452000   241.30992     -417.12413     -336.30629     -417.10799      0              4772.6908      31.128         21.465467      33.600254      22450.919      1320.739       7551.4916      5445.8419      301.17676     -248.3431      -490.93688    
 130454000   248.72359     -417.14496     -333.84419     -417.12394      0              3354.3672      31.128         21.465467      33.684321      22507.091      2824.9757      4188.0513      3050.0747      140.61629      1598.2629     -1609.3844    
 130456000   245.78844     -417.42032     -335.10257     -417.40697      0              3758.3081      31.128         21.465467      33.675324      22501.079      4259.3965      2161.6137      4853.9141     -553.08434      961.83931      832.84534    
 130458000   246.83772     -415.72154     -333.05237     -415.70567      0              2834.2907      31.128         21.465467      33.531739      22405.138      4025.2254      1400.7233      3076.9235      986.79712      412.14754      746.66249    
 130460000   244.32152     -418.1352      -336.30874     -418.11857      0              3550.2482      31.128         21.465467      33.622806      22465.988      2811.9488      3845.4951      3993.3006     -122.72348     -1527.3692     -460.28935    
 130462000   246.06143     -416.39945     -333.99028     -416.3839       0              3671.8202      31.128         21.465467      33.464932      22360.5        3614.8655      3550.9186      3849.6764     -535.38729     -121.87724      251.98315    
 130464000   250.2277      -417.91395     -334.10943     -417.89653      0              3064.5522      31.128         21.465467      33.598056      22449.45       4376.088       1519.4334      3298.1354      109.0027       722.19621     -1030.011     
 130466000   242.42053     -415.98625     -334.79646     -415.96345      0              2908.8228      31.128         21.465467      33.433888      22339.757      3447.6343      2136.054       3142.7802     -89.734034      290.88599      377.66982    
 130468000   243.33277     -419.84659     -338.35127     -419.8306       0              3373.3067      31.128         21.465467      33.383016      22305.766      3400.2033      2900.1729      3819.5439     -1121.0007     -1211.9321     -1810.7944    
 130470000   245.77972     -416.90753     -334.5927      -416.87966      0              3230.1265      31.128         21.465467      33.406778      22321.642      1753.3536      3876.0786      4060.9473      86.4584        1113.7616      65.45831     
 130472000   239.44984     -419.34144     -339.14657     -419.32649      0              2277.8067      31.128         21.465467      33.417404      22328.743      2601.6511      1647.2664      2584.5025     -587.74412      185.79746     -37.950606    
 130474000   249.06156     -418.34436     -334.93039     -418.3197       0              2574.0873      31.128         21.465467      33.550429      22417.627      1593.8988      2951.2595      3177.1037      715.99482     -1072.9398     -1934.7697    
 130476000   242.45435     -414.68884     -333.48771     -414.65735      0              2884.462       31.128         21.465467      33.455447      22354.162      3302.9846      4968.0103      382.39095     -664.28212      112.77026     -458.73109    
 130478000   245.61148     -417.45377     -335.19529     -417.43892      0              3373.1152      31.128         21.465467      33.247655      22215.32       3213.503       4126.9708      2778.8718     -285.18888     -37.767148     -393.15288    
 130480000   249.97879     -417.19619     -333.47504     -417.17981      0              3781.9005      31.128         21.465467      33.302757      22252.138      2806.9451      3813.6646      4725.0919      1815.0902     -44.602825     -314.96049    
 130482000   248.39612     -419.17602     -335.98493     -419.16448      0              2208.7505      31.128         21.465467      33.43356       22339.538      899.05414      3122.7604      2604.4368     -132.11749      1740.1338      260.56494    
 130484000   245.17809     -419.85987     -337.74653     -419.84136      0              3777.1682      31.128         21.465467      33.487232      22375.4        2070.959       5107.3423      4153.2034      34.977862      622.75374     -37.466454    
 130486000   245.89839     -417.21661     -334.86203     -417.19444      0              4367.3435      31.128         21.465467      33.523633      22399.722      4532.3604      3813.9466      4755.7234     -569.58536     -2875.309      -1122.8544    
 130488000   246.02491     -416.62151     -334.22456     -416.59456      0              2751.7449      31.128         21.465467      33.47076       22364.394      2651.8214      2633.5099      2969.9034     -574.94124      693.32744     -1773.6864    
 130490000   242.51514     -419.85296     -338.63147     -419.82231      0              3906.3515      31.128         21.465467      33.605569      22454.47       4863.0897      2127.7981      4728.1668     -217.01116      467.2487       167.70466    
 130492000   244.26819     -416.95427     -335.14566     -416.92814      0              2782.1891      31.128         21.465467      33.696979      22515.548      1849.1103      2521.3337      3976.1231     -498.67152      785.9072       996.94411    
 130494000   251.46504     -415.97085     -331.75193     -415.95535      0              3266.7921      31.128         21.465467      33.569856      22430.608      4333.6602      1064.0481      4402.6678      609.58791     -2170.2897      405.54018    
 130496000   241.3228      -417.2378      -336.41565     -417.21724      0              4194.8708      31.128         21.465467      33.63329       22472.993      4372.1209      4956.1505      3256.341      -778.95656     -805.82735     -279.91907    
 130498000   247.40526     -417.11236     -334.25311     -417.09227      0              4878.2398      31.128         21.465467      33.501762      22385.109      4702.9839      4493.1064      5438.6292      810.99729     -3045.8735      1073.2061    
 130500000   250.32715     -415.14461     -331.30678     -415.1163       0              2612.1698      31.128         21.465467      33.454528      22353.548      2349.6427      2627.2777      2859.5889      706.9533      -2016.8374     -257.46223    
 130502000   244.0215      -416.69221     -334.96623     -416.66457      0              2406.9599      31.128         21.465467      33.477232      22368.719      2174.6988      2252.8609      2793.32       -112.62818     -640.04107     -397.61664    
 130504000   239.99673     -417.1649      -336.78686     -417.1454       0              1898.6299      31.128         21.465467      33.711837      22525.476      2462.171       1230.517       2003.2017      421.82879      127.88456     -387.63491    
 130506000   245.00712     -415.57065     -333.51457     -415.55026      0              1966.2876      31.128         21.465467      33.709554      22523.95       2404.8039      3586.3499     -92.2909       -48.1768       -391.03866     -591.70964    
 130508000   242.64143     -416.94203     -335.67826     -416.91796      0              3452.3867      31.128         21.465467      33.55006       22417.38       3292.8518      2684.5534      4379.7547     -1227.2219     -373.32738     -389.79971    
 130510000   248.75019     -416.59054     -333.28086     -416.56874      0              2939.493       31.128         21.465467      33.581917      22438.666      1937.9926      6318.5445      561.94191      2335.6167     -1282.2924      463.38822    
 130512000   245.83188     -419.87156     -337.53926     -419.84968      0              3315.9427      31.128         21.465467      33.690498      22511.218      3447.872       3839.8773      2660.0788      1768.9862     -3.6853897     -444.19101    
 130514000   244.95184     -416.5101      -334.47253     -416.49179      0              4633.9866      31.128         21.465467      33.510228      22390.766      4578.2641      3370.2222      5953.4736     -1136.7519      321.07064      494.01822    
 130516000   245.82554     -416.55171     -334.22153     -416.52737      0              3330.1499      31.128         21.465467      33.667712      22495.993      2035.0016      3456.2709      4499.177       359.78101      351.69597      581.97196    
 130518000   252.11613     -415.97709     -331.54011     -415.96082      0              2764.4789      31.128         21.465467      33.596264      22448.253      622.35837      3800.9898      3870.0884     -296.43475      155.72033     -961.15412    
 130520000   250.82445     -417.81694     -333.81256     -417.79871      0              1692.6014      31.128         21.465467      33.832704      22606.237      482.09366      1518.0955      3077.6149      1084.7212      11.47306      -513.13638    
 130522000   238.34923     -417.6106      -337.78433     -417.59514      0              1217.8677      31.128         21.465467      33.757476      22555.971     -580.93367      1155.8087      3078.7282      597.60134     -575.4123       1151.8326    
 130524000   244.09782     -416.04681     -334.29526     -416.01788      0              2906.6158      31.128         21.465467      33.831674      22605.548      3108.1218      2726.5443      2885.1814      292.75545     -2989.3391      416.08387    
 130526000   247.62379     -419.64298     -336.71054     -419.62889      0              1085.5753      31.128         21.465467      33.665363      22494.423      93.38805       1617.5335      1545.8042      298.26975     -218.31729      613.20663    
 130528000   240.75175     -417.77769     -337.14679     -417.7593       0              4320.3717      31.128         21.465467      33.460862      22357.78       4891.9371      3719.7882      4349.39        130.39194     -266.46149     -1398.9026    
 130530000   242.48656     -417.25679     -336.04487     -417.24334      0              3542.0414      31.128         21.465467      33.608789      22456.622      3248.6735      2743.3968      4634.0539     -611.66268      918.06024     -448.52922    
 130532000   243.6804      -416.18252     -334.57078     -416.16077      0              1604.0587      31.128         21.465467      33.541894      22411.924      1754.0081      2241.5283      816.6397       1466.0439      214.70786     -1441.7286    
 130534000   245.98801     -417.6437      -335.2591      -417.62267      0              3211.0131      31.128         21.465467      33.544943      22413.961      3567.8984      2531.4342      3533.7066      469.58336     -1260.3954     -1515.0309    
 130536000   242.28066     -417.92445     -336.7815      -417.90966      0              2363.9231      31.128         21.465467      33.591827      22445.288      1461.2546      3773.1168      1857.398       1521.9584     -787.97104     -1849.4932    
 130538000   241.97344     -418.30677     -337.26671     -418.29342      0              2139.9656      31.128         21.465467      33.560436      22424.314      1340.1227      2707.3154      2372.4587      569.58147      67.831072      803.9019     
 130540000   245.77818     -416.54161     -334.22729     -416.51832      0              4241.1877      31.128         21.465467      33.546918      22415.281      5388.5278      3562.7161      3772.3191     -1625.1538      595.83077      18.424222    
 130542000   241.08456     -418.27735     -337.53499     -418.26457      0              4054.1768      31.128         21.465467      33.689902      22510.819      2901.0406      3608.8525      5652.6372      1637.5561      213.2346       1491.9008    
 130544000   241.94368     -418.56357     -337.53348     -418.54811      0              1879.6513      31.128         21.465467      33.806407      22588.666      3626.5529      1982.8118      29.589235     -585.7412      -1174.7694      765.93264    
 130546000   250.15149     -419.08702     -335.30803     -419.07359      0              2644.1203      31.128         21.465467      33.679989      22504.196      1910.4923      4259.8696      1761.9991      308.90268     -178.83212     -438.37693    
 130548000   238.22918     -416.16578     -336.37972     -416.14982      0              247.79331      31.128         21.465467      33.632553      22472.5        1244.6773     -320.19711     -181.10025      753.77157      763.22139     -2.8991786    
 130550000   239.61171     -418.88515     -338.63606     -418.86743      0              2790.9327      31.128         21.465467      33.701948      22518.868      1757.2333      2463.5737      4151.9909      704.18775     -651.73248      1269.0219    
 130552000   248.46562     -417.13112     -333.91675     -417.10367      0              1013.2419      31.128         21.465467      33.53644       22408.279      729.69264      1664.4658      645.56718      1195.0258     -39.793516     -120.35592    
 130554000   246.9509      -418.62211     -335.91503     -418.61084      0              5205.3326      31.128         21.465467      33.422289      22332.007      2985.7253      5235.7303      7394.542      -1234.9738      867.96824      470.31342    
[...]
 137364000   240.60038     -418.81567     -338.23546     -418.83085      0              2914.6904      31.128         21.465467      33.420977      22331.13       857.33312      3298.4405      4588.2976      255.81034      373.59774      1288.4303    
 137366000   245.09884     -420.3858      -338.29901     -420.40413      0              2632.9974      31.128         21.465467      33.501957      22385.239      2125.4723      2488.1893      3285.3306      1480.5359      264.28058      253.17827    
 137368000   237.36025     -420.59447     -341.09943     -420.61188      0              940.54953      31.128         21.465467      33.46874       22363.044      1220.7595      1325.4555      275.43362     -1056.1        -1031.9287     -29.312238    
 137370000   245.50573     -419.47132     -337.24825     -419.49146      0              2713.7866      31.128         21.465467      33.661733      22491.997      2221.5325      4084.7442      1835.0829      1772.2153     -145.28329      789.9252     
 137372000   248.55915     -418.51143     -335.26573     -418.54011      0              3192.3432      31.128         21.465467      33.562996      22426.024      3573.6601      4191.2761      1812.0932      699.27484     -394.50384      477.77927    
 137374000   247.13437     -419.19121     -336.42269     -419.22322      0              2726.5917      31.128         21.465467      33.582079      22438.775      3215.2773      3566.2279      1398.2698      381.70887     -903.95672      164.25199    
 137376000   247.86523     -417.51107     -334.49777     -417.52026      0              4373.5971      31.128         21.465467      33.609787      22457.288      4851.5046      4114.584       4154.7027      970.79397     -2078.4439      1934.6568    
 137378000   237.99791     -419.38253     -339.67393     -419.39401      0              1250.6968      31.128         21.465467      33.665368      22494.426     -479.84913      2545.5105      1686.4291      998.78963      1526.2104     -420.81955    
 137380000   240.24033     -417.99346     -337.53385     -418.00913      0              1609.5934      31.128         21.465467      33.516576      22395.007     -356.6696       1901.1946      3284.2552      1261.7469     -440.26923      960.95446    
 137382000   247.94919     -420.51048     -337.46907     -420.52544      0              2944.6919      31.128         21.465467      33.409197      22323.259      2836.6748      3028.5349      2968.8659      455.42616      76.183172     -55.622766    
 137384000   247.84078     -420.1007      -337.0956      -420.11908      0              3685.3825      31.128         21.465467      33.430189      22337.286      3226.0746      4321.2007      3508.8721     -724.64541      1465.3342     -1244.0797    
 137386000   248.24405     -418.56224     -335.42207     -418.58503      0              2586.7803      31.128         21.465467      33.427599      22335.555      2604.1722      4127.9832      1028.1853     -125.66934     -2053.3717     -939.25161    
 137388000   248.71083     -420.17168     -336.87518     -420.19939      0              3714.6387      31.128         21.465467      33.407359      22322.031      3574.2407      5181.3816      2388.2938      1515.8137     -1263.3757     -946.4339     
 137390000   244.90513     -417.66879     -335.64687     -417.6862       0              5006.7838      31.128         21.465467      33.455029      22353.883      4706.3546      4337.7688      5976.2279     -243.48337      1330.4575     -950.78913    
 137392000   243.69028     -416.3873      -334.77225     -416.40409      0              2939.4047      31.128         21.465467      33.509637      22390.371      2489.8364      2661.7393      3666.6385     -683.13242      136.59119      381.61166    
 137394000   247.29954     -418.3463      -335.52246     -418.36227      0              4087.6823      31.128         21.465467      33.646695      22481.95       4455.6232      3804.3204      4003.1033     -196.3903       151.16793      159.90463    
 137396000   243.10699     -417.24083     -335.82113     -417.25672      0              1648.1883      31.128         21.465467      33.62962       22470.54       3227.5612      1615.0224      101.98133      788.34471     -1117.008       472.72161    
 137398000   248.62554     -421.16578     -337.89785     -421.17953      0              2352.8697      31.128         21.465467      33.56835       22429.601      1253.074       4236.8479      1568.6874     -354.11032     -1674.0432      414.85108    
 137400000   247.45581     -418.98587     -336.10969     -418.99978      0              2216.1766      31.128         21.465467      33.499514      22383.607      2243.1736      3402.3442      1003.0121     -224.14926     -766.7589       527.46756    
 137402000   244.80982     -420.14608     -338.15608     -420.16867      0              4460.4626      31.128         21.465467      33.514437      22393.578      4519.5649      4282.7705      4579.0525      449.42568      1534.8439      2073.9828    
 137404000   241.05822     -416.67754     -335.944       -416.6844       0              4085.7292      31.128         21.465467      33.457704      22355.67       5010.7843      4082.5609      3163.8423      376.01702     -341.17127     -206.01543    
 137406000   241.11921     -418.12093     -337.36696     -418.13567      0              3169.9013      31.128         21.465467      33.560049      22424.055      2709.9041      2431.2214      4368.5782      101.7678      -1449.3012     -859.50723    
 137408000   242.08754     -416.90071     -335.82244     -416.91342      0              830.7096       31.128         21.465467      33.447994      22349.182      884.92198     -353.65041      1960.8572     -57.80032      -1456.0421      793.87754    
 137410000   242.05123     -420.14142     -339.0753      -420.15846      0              3047.864       31.128         21.465467      33.654999      22487.498      4437.6867      1973.3911      2732.5142      241.68917     -562.48794      1841.7458    
 137412000   240.22987     -419.10515     -338.64904     -419.12344      0              2137.0377      31.128         21.465467      33.464223      22360.026      2815.5806      3154.842       440.69065     -452.33451     -1137.6316      420.44091    
 137414000   242.07109     -419.72091     -338.64815     -419.74257      0              4568.2309      31.128         21.465467      33.366931      22295.018      3928.5696      4990.3332      4785.7898      618.88019      795.15771      150.72051    
 137416000   247.00775     -416.1264      -333.40029     -416.13984      0              1696.1659      31.128         21.465467      33.518212      22396.1        2465.2228      1703.0473      920.22773     -2.9565654      199.65201      1585.6415    
 137418000   248.36381     -421.07542     -337.89514     -421.09376      0              2504.144       31.128         21.465467      33.541185      22411.45       3319.6374      1414.0834      2778.7111      2084.8578     -336.9643       1459.8289    
 137420000   247.05038     -417.81554     -335.07515     -417.83517      0              4832.9251      31.128         21.465467      33.304606      22253.374      6282.7515      2844.3718      5371.6522      1313.2877     -1297.0333      987.22946    
 137422000   239.5011      -417.84811     -337.63607     -417.86343      0              3304.388       31.128         21.465467      33.312901      22258.916      4234.4167      3247.5797      2431.1676      194.87698      1272.7984     -1499.2207    
 137424000   250.66273     -418.63835     -334.68814     -418.65103      0              4307.7167      31.128         21.465467      33.402557      22318.822      2713.1586      3417.2907      6792.7008      1381.7701     -372.78896      1344.1788    
 137426000   239.14817     -418.44674     -338.3529      -418.45466      0              2742.641       31.128         21.465467      33.326521      22268.017      2026.9422      3472.4254      2728.5554     -427.96054     -1456.6955     -1148.6464    
 137428000   252.67407     -419.3067      -334.68286     -419.32311      0              3899.9805      31.128         21.465467      33.320146      22263.757      4619.5599      4959.7353      2120.6464     -164.46651      20.393133     -404.93199    
 137430000   241.35536     -418.65273     -337.81968     -418.66713      0              1874.7312      31.128         21.465467      33.565176      22427.481      1683.5491      2537.8833      1402.7613      13.096304      924.42428     -917.44359    
 137432000   244.73693     -417.75267     -335.78708     -417.76258      0              3779.9983      31.128         21.465467      33.628737      22469.951      2365.0762      5721.4513      3253.4672      1346.6694     -110.43885      1334.2122    
 137434000   240.94763     -417.00728     -336.31078     -417.02432      0              380.61103      31.128         21.465467      33.657163      22488.944      503.47104      834.46923     -196.10719     -1542.21        107.74373      287.6122     
 137436000   248.33802     -419.65762     -336.48597     -419.66689      0              3675.1351      31.128         21.465467      33.608013      22456.103      2151.5044      4314.1817      4559.7193      186.26255     -543.54102      719.28168    
 137438000   236.66908     -418.28531     -339.02175     -418.29905      0              3876.7458      31.128         21.465467      33.497253      22382.096      4704.0626      2839.8838      4086.2911     -1527.5125      474.66749     -947.44236    
 137440000   238.8721      -419.94901     -339.94763     -419.97481      0              4585.2726      31.128         21.465467      33.50782       22389.156      5393.6057      4660.941       3701.2713     -197.83308     -237.24534     -567.54798    
 137442000   234.76141     -417.73609     -339.11144     -417.74505      0              3846.2533      31.128         21.465467      33.684302      22507.078      3703.5584      2229.3912      5605.8102      208.2529      -247.71671     -1128.861     
 137444000   249.70288     -419.13855     -335.5098      -419.15478      0              3122.4645      31.128         21.465467      33.509912      22390.555      4357.976       1790.6254      3218.7921     -2040.4813     -1811.996       1568.95      
 137446000   240.91713     -419.95996     -339.27367     -419.97588      0              3907.08        31.128         21.465467      33.326287      22267.86       3351.2116      3567.5981      4802.4302      1300.7254      338.04387     -1295.7407    
 137448000   247.71943     -418.61718     -335.65272     -418.6345       0              3646.3605      31.128         21.465467      33.304172      22253.083      4243.925       1919.4049      4775.7516     -936.64564      58.401259      1879.8746    
 137450000   237.98341     -419.36613     -339.66239     -419.39046      0              3347.1095      31.128         21.465467      33.360935      22291.012      3705.0517      2563.8011      3772.4758      1327.9883      2139.6915      1191.4264    
 137452000   251.60029     -420.25938     -335.99516     -420.27918      0              2884.3515      31.128         21.465467      33.595967      22448.055      3525.7927      2458.0995      2669.1621      261.40996     -304.93308     -1247.1997    
 137454000   239.30484     -418.86725     -338.72094     -418.88743      0              1032.3702      31.128         21.465467      33.467901      22362.484      1063.7913      502.84557      1530.4738      492.29097     -836.34817      1733.7427    
 137456000   250.14367     -419.57166     -335.79528     -419.59185      0              3871.5019      31.128         21.465467      33.423114      22332.558      3020.4047      3658.0701      4936.0311      305.97542      1199.9786      112.70769    
 137458000   241.05313     -417.79336     -337.06152     -417.85509      0              4008.3711      31.128         21.465467      33.42245       22332.114      4270.6056      3489.5923      4264.9155      2236.4335     -266.16831      1104.8581    
 137460000   244.63598     -419.30832     -337.37654     -419.3261       0              1947.6218      31.128         21.465467      33.602564      22452.462      1790.8228     -21.146944      4073.1896      2470.6935     -610.19887      853.36592    
 137462000   243.17792     -420.91262     -339.46916     -420.93087      0              2338.6296      31.128         21.465467      33.569554      22430.406      2017.5314      2422.3654      2575.9921     -720.00805     -835.08821      864.45833    
 137464000   241.55507     -417.56342     -336.66348     -417.58034      0              2280.0627      31.128         21.465467      33.476257      22368.067      1444.4402      2194.2367      3201.5113      577.27557      396.16965     -309.88833    
 137466000   246.94475     -420.35354     -337.64853     -420.4139       0              4018.7942      31.128         21.465467      33.36665       22294.83       2808.5042      3765.74        5482.1385      2173.4977     -1213.3083     -377.62448    
 137468000   239.67103     -420.15095     -339.882       -420.21043      0              2860.4905      31.128         21.465467      33.389258      22309.936      4143.7949      2329.1687      2108.5078      1320.8846     -1045.6434     -66.135597    
 137470000   237.81456     -418.62106     -338.97386     -418.63878      0              4252.3116      31.128         21.465467      33.277928      22235.548      3772.4775      3463.0595      5521.3979      432.06145      185.29226      984.5042     
 137472000   242.31431     -419.92741     -338.77319     -419.947        0              2955.2583      31.128         21.465467      33.385692      22307.554      2747.128       2815.957       3302.6898     -556.40909     -2128.1591      1675.609     
 137474000   242.50614     -419.33577     -338.1173      -419.35423      0              2199.7384      31.128         21.465467      33.518722      22396.441      1040.8249      1897.0101      3661.3803      290.76515      1398.2687     -1130.8481    
 137476000   242.1723      -417.99249     -336.88583     -418.01643      0              1804.3774      31.128         21.465467      33.433695      22339.628      3018.7832      1103.9129      1290.4362      320.34203     -831.62258      54.087197    
 137478000   242.19759     -418.31585     -337.20072     -418.3319       0              498.72474      31.128         21.465467      33.58634       22441.622      1948.9505     -570.93142      118.15514     -197.64578      587.41519      328.1236     
 137480000   244.95598     -419.14949     -337.11054     -419.18913      0              2093.4083      31.128         21.465467      33.358241      22289.212      2663.5528      2075.4528      1541.2192      574.98998     -7.4321222     -506.72854    
 137482000   249.04326     -419.24407     -335.83624     -419.2611       0              3824.303       31.128         21.465467      33.317116      22261.732      2423.5364      3912.8344      5136.5381      80.235436      124.02145      824.51899    
 137484000   238.81286     -420.42321     -340.44167     -420.43991      0              3471.1062      31.128         21.465467      33.462448      22358.84       4311.6879      4366.8611      1734.7697     -1226.8687      1562.5919     -729.99798    
 137486000   245.23886     -418.15865     -336.02495     -418.17136      0              2047.9434      31.128         21.465467      33.573642      22433.137      1127.6225      3190.1777      1826.0299      67.019942      823.18425      479.42236    
 137488000   248.07116     -420.37819     -337.29593     -420.40648      0              2530.2601      31.128         21.465467      33.585013      22440.735      3148.8955      2613.0129      1828.8718     -272.11457      14.534063     -2346.2715    
 137490000   241.94189     -419.93677     -338.90727     -419.95601      0              3229.9585      31.128         21.465467      33.390572      22310.814      3526.9626      3926.3853      2236.5275     -473.88536     -79.614039      162.60302    
 137492000   250.1174      -417.56144     -333.79386     -417.57662      0              584.15756      31.128         21.465467      33.382878      22305.673     -234.14546      2626.219      -639.60087     -393.14501      720.75059      849.96867    
 137494000   243.55824     -419.86062     -338.28979     -419.87418      0              2134.3528      31.128         21.465467      33.451785      22351.715      3530.879       1870.9639      1001.2154      414.3814      -382.07409     -180.27452    
 137496000   239.41649     -417.53721     -337.35351     -417.54541      0              2356.9765      31.128         21.465467      33.561034      22424.713      2970.765       3555.595       544.56942      1091.6986      553.34039     -140.74802    
 137498000   248.76774     -420.87065     -337.55509     -420.90675      0              3181.277       31.128         21.465467      33.524165      22400.078      3207.2642      2752.5661      3584.0008      251.77264     -624.06691      174.45466    
 137500000   237.31749     -420.9098      -341.42908     -420.92537      0              4350.6766      31.128         21.465467      33.481793      22371.766      5581.1063      2991.5193      4479.404       1069.2853     -757.28732      968.35702    
 137502000   242.0194      -417.80426     -336.74881     -417.84226      0              4807.4726      31.128         21.465467      33.292264      22245.127      4301.543       4887.8292      5233.0457      377.97777      0.96657903     72.544643    
 137504000   245.32839     -420.79436     -338.63068     -420.81047      0              3801.2833      31.128         21.465467      33.232048      22204.892      2600.7658      4233.1657      4569.9184     -1366.265       1352.8587     -1442.1105    
 137506000   236.78367     -417.2658      -337.96386     -417.28148      0              2687.1996      31.128         21.465467      33.393418      22312.716      2260.3388      2623.4354      3177.8248     -515.67247     -56.731219     -240.96616    
WARNING: Wall time limit reached (../timer.cpp:193)
Loop time of 85796.1 on 4 procs for 7521000 steps with 2592 atoms

Performance: 3.787 ns/day, 6.338 hours/ns, 87.661 timesteps/s
1437.9% CPU use with 4 MPI tasks x no OpenMP threads

MPI task timing breakdown:
Section |  min time  |  avg time  |  max time  |%varavg| %total
---------------------------------------------------------------
Pair    | 21042      | 21267      | 21598      | 156.3 | 24.79
Bond    | 0.73545    | 0.74448    | 0.76516    |   1.4 |  0.00
Neigh   | 630.36     | 636.36     | 641.59     |  18.6 |  0.74
Comm    | 2423       | 2754.5     | 2979.4     | 433.9 |  3.21
Output  | 6492.1     | 6492.2     | 6492.3     |   0.1 |  7.57
Modify  | 54618      | 54624      | 54630      |   2.0 | 63.67
Other   |            | 21.03      |            |       |  0.02

Nlocal:            648 ave         661 max         629 min
Histogram: 1 0 0 0 1 0 0 0 0 2
Nghost:         4161.5 ave        4195 max        4140 min
Histogram: 2 0 0 0 1 0 0 0 0 1
Neighs:              0 ave           0 max           0 min
Histogram: 4 0 0 0 0 0 0 0 0 0
FullNghs:       160926 ave      166991 max      152981 min
Histogram: 1 0 0 1 0 0 0 0 0 2

Total # of neighbors = 643702
Ave neighs/atom = 248.34182
Ave special neighs/atom = 0
Neighbor list builds = 150420
Dangerous builds not checked
unfix 3
unfix 1
unfix 2


# Finalize simulation
write_restart	restart.lmp.${pid}
write_restart	restart.lmp.0
System init for write_restart ...
Generated 0 of 1 mixed pair_coeff terms from geometric mixing rule
write_data	data.final.${pid} nocoeff
write_data	data.final.0 nocoeff
System init for write_data ...
Generated 0 of 1 mixed pair_coeff terms from geometric mixing rule
Total wall time: 23:50:12
