LAMMPS (23 Jun 2022)
include procedure.lmp
echo both
include		in.partitions
variable        pid world 0
include		in.temp
variable	temperature equal 245
variable        tempDamp equal 0.100 # this is 0.1 ps
include		in.pressure
variable        pressure equal 3039.75
variable        pressureDamp equal 1.0 #this is 1ps

variable	barostat string	   tri
variable	direction string   z
variable	direction_x_bool equal 0
variable	direction_y_bool equal 0
variable	direction_z_bool equal 1

include		in.seed
variable        seed world 745823

units           metal
atom_style	full
box tilt large
read_restart 	restart.lmp.${pid}
read_restart 	restart.lmp.0
Reading restart file ...
  restart file = 23 Jun 2022, LAMMPS = 23 Jun 2022
  restoring atom style full from restart
  triclinic box = (0 0 -0.84337374) to (31.128 21.465467 32.548441) with tilt (-9.18238 0.7870404 -11.212191)
WARNING: Triclinic box skew is large (../domain.cpp:224)
  2 by 1 by 2 MPI processor grid
Summary of lammps deepmd module ...
  >>> Info of deepmd-kit:
  installed to:       /u/sigbjobo/software/DEEPMD_FROM_SOURCE/deepmd-kit/install
  source:             v2.1.3
  source branch:       master
  source commit:      5a32c49
  source commit at:   2022-07-01 09:52:58 +0800
  surpport model ver.:1.1 
  build float prec:   double
  build with tf inc:  /u/sigbjobo/software/DEEPMD_FROM_SOURCE/tensorflow/install/include;/u/sigbjobo/software/DEEPMD_FROM_SOURCE/tensorflow/install/include
  build with tf lib:  /u/sigbjobo/software/DEEPMD_FROM_SOURCE/tensorflow/install/lib/libtensorflow_cc.so;/u/sigbjobo/software/DEEPMD_FROM_SOURCE/tensorflow/install/lib/libtensorflow_framework.so
  set tf intra_op_parallelism_threads: 0
  set tf inter_op_parallelism_threads: 0
  >>> Info of lammps module:
  use deepmd-kit at:  /u/sigbjobo/software/DEEPMD_FROM_SOURCE/deepmd-kit/install
  source:             v2.1.3
  source branch:      master
  source commit:      5a32c49
  source commit at:   2022-07-01 09:52:58 +0800
  build float prec:   double
  build with tf inc:  /u/sigbjobo/software/DEEPMD_FROM_SOURCE/tensorflow/install/include;/u/sigbjobo/software/DEEPMD_FROM_SOURCE/tensorflow/install/include
  build with tf lib:  /u/sigbjobo/software/DEEPMD_FROM_SOURCE/tensorflow/install/lib/libtensorflow_cc.so;/u/sigbjobo/software/DEEPMD_FROM_SOURCE/tensorflow/install/lib/libtensorflow_framework.so
  restoring pair style deepmd from restart
  2592 atoms
Finding 1-2 1-3 1-4 neighbors ...
  special bond factors lj:    0        0        0       
  special bond factors coul:  0        0        0       
     0 = max # of 1-2 neighbors
     0 = max # of 1-3 neighbors
     0 = max # of 1-4 neighbors
     1 = max # of special neighbors
  special bonds CPU = 0.000 seconds
  read_restart CPU = 0.033 seconds
include 	in.setup
variable	out_freq equal 2000
variable	out_freq2 equal 2000

timestep        0.0005

neigh_modify    delay 7 every 1

include         in.deepmd
# This is deepMD model

# create groups ###
#group ox type 2
#group hy type 1

mass 2 15.999
mass 1 1.008

pair_style      deepmd ../graph.pb
pair_coeff      * *

bond_style      none
angle_style     none
dihedral_style  none
improper_style  none
neigh_modify exclude none


neighbor        2.0 bin
neigh_modify    every 50 delay 0 check no

thermo          ${out_freq}
thermo          2000
thermo_style 	custom step temp pe etotal epair emol press lx ly lz vol pxx pyy pzz pxy pxz pyz

restart 	${out_freq} restart.lmp.${pid} restart2.lmp.${pid}
restart 	2000 restart.lmp.${pid} restart2.lmp.${pid}
restart 	2000 restart.lmp.0 restart2.lmp.${pid}
restart 	2000 restart.lmp.0 restart2.lmp.0


timer           timeout 23:50:00 every 1000
New timer settings: style=normal  mode=nosync  timeout=23:50:00


# Set number of time steps
variable 	nsteps_wall		equal	 6000000
variable 	nsteps_enhanced_coex    equal	300000000

variable     nsteps_enhanced_coex_upto equal (${nsteps_wall}+${nsteps_enhanced_coex})
variable     nsteps_enhanced_coex_upto equal (6000000+${nsteps_enhanced_coex})
variable     nsteps_enhanced_coex_upto equal (6000000+300000000)


# Set temperature for first step
if "$(step) < 1  " then    "velocity 	all create ${temperature} ${seed} dist gaussian"


# Always run thermo and barostat


######################################
# Run simulation with wall potential #
######################################
if " $(step) < ${nsteps_wall} " then    "fix             3 all plumed plumedfile plumed.equil.dat outfile plumed.equil.out"   "fix             1 all nph ${direction} ${pressure} ${pressure} ${pressureDamp}"   "fix             2 all temp/csvr ${temperature} ${temperature} ${tempDamp} ${seed}"   "run             ${nsteps_wall} upto"
if " $(step) == ${nsteps_wall} " then    "unfix 3"   "unfix 1"   "unfix 2"


############################
# Run enhanced coesistence #
############################
if "$(step) == ${nsteps_wall}" then    "fix             3 all plumed plumedfile plumed.start.dat outfile plumed.out" else    "fix             3 all plumed plumedfile plumed.dat outfile plumed.out"
fix             3 all plumed plumedfile plumed.dat outfile plumed.out

if "$(step) < ${nsteps_enhanced_coex_upto} && $(step) >= ${nsteps_wall} " then    "include         in.dump"    "fix             1 all nph ${direction} ${pressure} ${pressure} ${pressureDamp}"   "fix             2 all temp/csvr ${temperature} ${temperature} ${tempDamp} ${seed}"   "run             ${nsteps_enhanced_coex_upto} upto"    "unfix 3"   "unfix 1"   "unfix 2"
include         in.dump
dump            myDump all atom ${out_freq2} dump.water.${pid}
dump            myDump all atom 2000 dump.water.${pid}
dump            myDump all atom 2000 dump.water.0
dump            myDump2 all dcd ${out_freq2} dump.${pid}.dcd
dump            myDump2 all dcd 2000 dump.${pid}.dcd
dump            myDump2 all dcd 2000 dump.0.dcd
dump_modify     myDump append yes
dump_modify     myDump2 append yes

fix             1 all nph ${direction} ${pressure} ${pressure} ${pressureDamp}
fix             1 all nph z ${pressure} ${pressure} ${pressureDamp}
fix             1 all nph z 3039.75 ${pressure} ${pressureDamp}
fix             1 all nph z 3039.75 3039.75 ${pressureDamp}
fix             1 all nph z 3039.75 3039.75 1
fix             2 all temp/csvr ${temperature} ${temperature} ${tempDamp} ${seed}
fix             2 all temp/csvr 245 ${temperature} ${tempDamp} ${seed}
fix             2 all temp/csvr 245 245 ${tempDamp} ${seed}
fix             2 all temp/csvr 245 245 0.1 ${seed}
fix             2 all temp/csvr 245 245 0.1 745823
run             ${nsteps_enhanced_coex_upto} upto
run             306000000 upto

CITE-CITE-CITE-CITE-CITE-CITE-CITE-CITE-CITE-CITE-CITE-CITE-CITE

Your simulation uses code contributions which should be cited:

- USER-DEEPMD package:

@article{Wang_ComputPhysCommun_2018_v228_p178,
  author = {Wang, Han and Zhang, Linfeng and Han, Jiequn and E, Weinan},
  doi = {10.1016/j.cpc.2018.03.016},
  url = {https://doi.org/10.1016/j.cpc.2018.03.016},
  year = 2018,
  month = {jul},
  publisher = {Elsevier {BV}},
  volume = 228,
  journal = {Comput. Phys. Commun.},
  title = {{DeePMD-kit: A deep learning package for many-body potential energy representation and molecular dynamics}},
  pages = {178--184}
}

CITE-CITE-CITE-CITE-CITE-CITE-CITE-CITE-CITE-CITE-CITE-CITE-CITE

Generated 0 of 1 mixed pair_coeff terms from geometric mixing rule
Neighbor list info ...
  update every 50 steps, delay 0 steps, check no
  max neighbors/atom: 2000, page size: 100000
  master list distance cutoff = 8
  ghost atom cutoff = 8
  binsize = 4, bins = 11 9 9
  1 neighbor lists, perpetual/occasional/extra = 1 0 0
  (1) pair deepmd, perpetual
      attributes: full, newton on
      pair build: full/bin
      stencil: full/bin/3d
      bin: standard
Per MPI rank memory allocation (min/avg/max) = 7.302 | 7.302 | 7.302 Mbytes
   Step          Temp          PotEng         TotEng         E_pair         E_mol          Press            Lx             Ly             Lz           Volume          Pxx            Pyy            Pzz            Pxy            Pxz            Pyz      
 187542000   243.23836     -416.25722     -334.79353     -416.25722      0              3978.3618      31.128         21.465467      33.391814      22311.644      2690.3086      4904.6154      4340.1614      1486.4512     -748.31297     -818.30603    
 187544000   246.17512     -415.23327     -332.78601     -415.19994      0              1271.2399      31.128         21.465467      33.42141       22331.419      2081.4274     -423.31127      2155.6037     -2167.5972     -1451.2689     -282.83465    
 187546000   247.77767     -419.63903     -336.65506     -419.60661      0              3771.3283      31.128         21.465467      33.445137      22347.274      3458.5914      4375.0144      3480.3789      989.97571      630.0667       816.76891    
 187548000   242.80637     -416.9103      -335.59129     -416.88707      0              2560.6933      31.128         21.465467      33.292209      22245.091      1409.0002      3387.3279      2885.7518     -1048.5256      676.14693      737.47081    
 187550000   244.39599     -417.57825     -335.72684     -417.55546      0              5131.6423      31.128         21.465467      33.429906      22337.096      3476.7195      5934.1677      5984.0396     -219.94328      1679.5501     -1001.9431    
 187552000   244.79005     -414.78482     -332.80145     -414.7575       0             -1246.8511      31.128         21.465467      33.611664      22458.543     -2435.8185      627.87631     -1932.6112      174.41607     -104.61437      506.83981    
 187554000   246.49638     -416.37936     -333.82451     -416.35201      0              3359.4597      31.128         21.465467      33.571642      22431.801      1797.2084      4229.4686      4051.7022     -723.65462     -2297.3956     -464.02752    
 187556000   243.87134     -419.14702     -337.47133     -419.11736      0              4060.4382      31.128         21.465467      33.64275       22479.314      3144.4797      4313.2889      4723.546       564.91722      556.44983     -678.04746    
 187558000   245.86565     -418.18001     -335.8364      -418.1545       0              4133.0162      31.128         21.465467      33.385492      22307.42       3937.2361      3504.5197      4957.2928     -461.27542      32.017357     -392.31085    
 187560000   245.41292     -419.23324     -337.04125     -419.20864      0              2628.6421      31.128         21.465467      33.372043      22298.433      4749.4035      3092.1305      44.392317     -619.97052     -1361.7129     -221.55145    
 187562000   240.28668     -418.38652     -337.91138     -418.36207      0              4142.8234      31.128         21.465467      33.509889      22390.539      5536.7484      3868.5292      3023.1928      1059.0663     -2009.9244     -756.77444    
 187564000   245.11413     -417.72127     -335.62935     -417.69468      0              3742.3228      31.128         21.465467      33.453752      22353.03       4154.6788      2617.6728      4454.6168      746.56843      458.12301     -1163.9318    
 187566000   247.68033     -415.68132     -332.72994     -415.65508      0              1619.1246      31.128         21.465467      33.528766      22403.152      3034.5963      290.96102      1531.8166      230.31507     -505.40444      325.13163    
 187568000   245.4928      -413.6244      -331.40566     -413.60027      0              3417.9062      31.128         21.465467      33.602926      22452.704      2396.3732      3536.8868      4320.4585      399.12435     -211.0696       256.27971    
 187570000   241.45446     -417.12841     -336.26217     -417.10345      0              3150.6466      31.128         21.465467      33.508946      22389.909      4787.7374      2028.4809      2635.7213      175.88082     -721.72037      727.13459    
 187572000   254.49721     -416.215       -330.98057     -416.1921       0              3391.528       31.128         21.465467      33.417789      22329          3474.2949      3241.2485      3459.0406     -4.9265179     -314.44669     -2099.5193    
 187574000   244.50321     -418.36059     -336.47328     -418.33612      0              4613.4555      31.128         21.465467      33.58569       22441.187      3863.0737      4601.0605      5376.2323      760.63472     -243.90918      256.94309    
 187576000   244.23237     -419.66619     -337.86958     -419.64292      0              2483.5481      31.128         21.465467      33.343213      22279.17       3565.454       2049.4052      1835.7851      2380.2065     -716.58249     -2190.0803    
 187578000   245.66649     -418.13802     -335.86111     -418.10845      0              1777.1296      31.128         21.465467      33.60788       22456.014      1695.0805      439.1011       3197.207      -957.44304      1016.0422      1124.4703    
 187580000   247.35709     -416.25534     -333.41223     -416.22835      0              3773.1297      31.128         21.465467      33.515118      22394.033      4211.4033      3488.2093      3619.7763     -547.74634     -157.35221      1171.0018    
 187582000   245.61469     -419.29659     -337.03702     -419.26973      0              2601.7741      31.128         21.465467      33.672536      22499.216      2998.8106      2009.4352      2797.0767      399.03023      836.35474      1474.3294    
 187584000   246.61894     -417.52411     -334.92821     -417.48004      0              2476.3063      31.128         21.465467      33.414725      22326.953      1870.8912      1952.6533      3605.3744      38.851714      1171.0649      1260.3828    
 187586000   242.28403     -418.48049     -337.33641     -418.44997      0              2454.6135      31.128         21.465467      33.484862      22373.817      2713.4142      4301.0813      349.34493     -678.14976      843.34515     -104.35865    
 187588000   240.24199     -416.36743     -335.90726     -416.33594      0              2141.1249      31.128         21.465467      33.468375      22362.801      2443.73        2565.7234      1413.9213      1050.855      -998.51582      963.60945    
 187590000   238.91781     -416.93927     -336.92258     -416.91258      0              4203.1085      31.128         21.465467      33.550804      22417.877      2963.8962      5415.4758      4229.9535      1727.3512      64.524211      825.89231    
 187592000   248.61735     -416.13433     -332.86914     -416.10926      0              2623.3129      31.128         21.465467      33.81278       22592.924      2897.9842      986.28801      3985.6666      1311.8219      131.86435     -143.81175    
 187594000   242.44282     -418.711       -337.51374     -418.68578      0              2001.4791      31.128         21.465467      33.807359      22589.302      3632.8425      839.65296      1531.9419      1174.6273      1127.484       1201.3022    
 187596000   251.55145     -417.50971     -333.26185     -417.48205      0              2684.8911      31.128         21.465467      33.669362      22497.095      1666.3393      2977.976       3410.3581     -2465.3962      21.794541      2248.9442    
 187598000   248.11878     -417.09333     -333.99511     -417.06643      0              3711.6542      31.128         21.465467      33.645485      22481.141      2764.8728      4456.9486      3913.1412      307.40505     -2127.7362      827.2011     
 187600000   243.5452      -418.32125     -336.75478     -418.2972       0              895.5295       31.128         21.465467      33.714961      22527.563      1012.9893      1685.4858     -11.886573     -937.81804     -498.41496      1183.1499    
 187602000   242.17896     -418.32246     -337.21357     -418.29864      0              3158.5743      31.128         21.465467      33.563321      22426.241      2496.8292      2820.0481      4158.8457     -354.02595     -198.4112       420.26152    
 187604000   242.83214     -416.1808      -334.85315     -416.15243      0              1508.1324      31.128         21.465467      33.647307      22482.359      2419.4671      477.12582      1627.8043     -855.99865     -663.21727      69.725916    
 187606000   244.99944     -415.56233     -333.50883     -415.53161      0              4609.7775      31.128         21.465467      33.583344      22439.62       4501.1197      3589.0352      5739.1775     -846.67322      17.1337       -252.08058    
 187608000   250.84621     -416.29563     -332.28396     -416.26979      0              2229.9323      31.128         21.465467      33.544316      22413.542      2320.8439      1203.3868      3165.5663      871.64108     -22.840734      1084.2156    
 187610000   245.95426     -420.93859     -338.5653      -420.91046      0              1002.4222      31.128         21.465467      33.731501      22538.615     -261.51407      870.96118      2397.8195     -812.49876     -291.22226     -1014.9433    
 187612000   244.39985     -418.98105     -337.12836     -418.95319      0              3466.9999      31.128         21.465467      33.555103      22420.75       3557.4107      3318.7008      3524.8882      221.62261     -1377.7233     -125.6107     
 187614000   249.00569     -415.43626     -332.04101     -415.4027       0              3289.185       31.128         21.465467      33.621394      22465.044      2249.8335      3086.9245      4530.7969     -75.785231      123.36254      236.3256     
 187616000   249.97776     -418.54552     -334.82471     -418.51533      0              2733.0691      31.128         21.465467      33.606881      22455.347      3472.6097      2009.9774      2716.62        406.66349     -1107.3314      418.5878     
 187618000   238.53175     -416.69153     -336.80414     -416.6525       0              1590.7225      31.128         21.465467      33.756386      22555.242      36.813104      1758.6023      2976.7521     -604.0549      -1238.4972      373.68181    
 187620000   253.35503     -417.6754      -332.8235      -417.64532      0              1234.9996      31.128         21.465467      33.633382      22473.054      3058.8434      1262.7045     -616.54912      665.55812     -292.37082     -810.41016    
 187622000   247.63684     -418.15819     -335.22139     -418.13441      0              3528.2394      31.128         21.465467      33.504818      22387.151      2428.2056      4993.875       3162.6377      589.09221      895.38458     -182.05996    
 187624000   243.18079     -418.51879     -337.07437     -418.48601      0              2990.0804      31.128         21.465467      33.454823      22353.745      2471.3726      3801.79        2697.0787     -1766.5143      572.47692      74.850659    
 187626000   246.01645     -415.59563     -333.20152     -415.55811      0              5134.7438      31.128         21.465467      33.247957      22215.522      4605.846       4345.3434      6453.0421     -1681.1115     -740.72693     -1549.0871    
 187628000   245.01159     -418.14192     -336.08434     -418.10373      0              4105.9317      31.128         21.465467      33.631718      22471.943      3318.9198      5665.6168      3333.2584      1235.3273      604.04189      822.65581    
 187630000   241.47279     -415.71092     -334.83853     -415.67981      0              3018.1444      31.128         21.465467      33.469916      22363.83       4230.3419      2014.4022      2809.689      -799.27775      297.20393      618.31164    
 187632000   238.07038     -419.89627     -340.1634      -419.8639       0              2263.2373      31.128         21.465467      33.459693      22356.999      3391.1305      2312.3348      1086.2466      656.45313     -1707.787      -496.98193    
 187634000   242.6893      -415.59457     -334.31476     -415.55462      0              4962.4503      31.128         21.465467      33.355953      22287.683      4454.6249      4818.8129      5613.9132     -694.437       -2083.2494      1528.2594    
 187636000   243.21619     -418.74989     -337.29362     -418.72332      0              3094.6409      31.128         21.465467      33.350059      22283.744      4035.3119      2242.8981      3005.7127      140.63772     -628.715       -251.09841    
 187638000   241.04476     -418.96614     -338.23711     -418.92588      0              3085.8458      31.128         21.465467      33.466465      22361.524      2608.5653      2557.4105      4091.5615      1090.0163     -443.56202      920.51962    
 187640000   242.76991     -419.43063     -338.12382     -419.39812      0              734.58225      31.128         21.465467      33.502384      22385.524      1241.8455     -390.07531      1351.9766      1834.5456      82.402189     -177.96972    
 187642000   245.90216     -418.32359     -335.96775     -418.28451      0              4050.6419      31.128         21.465467      33.759106      22557.06       4196.5276      3504.0752      4451.3228     -156.22682     -504.88968      1209.1923    
 187644000   244.7074      -418.71124     -336.75554     -418.67746      0              3246.9597      31.128         21.465467      33.392918      22312.382      3351.2051      3708.9543      2680.7198     -1481.0074     -1737.4843      1243.102     
 187646000   244.48758     -419.02788     -337.1458      -418.99481      0              2586.6643      31.128         21.465467      33.518147      22396.057      473.88043      4500.386       2785.7264     -377.76565     -1125.854      -834.61053    
 187648000   244.72193     -417.27865     -335.31809     -417.24428      0              4447.9227      31.128         21.465467      33.490142      22377.345      4740.351       2950.5646      5652.8524     -1594.5711     -28.846339     -19.236699    
 187650000   246.15049     -416.38721     -333.94821     -416.35288      0              3208.5276      31.128         21.465467      33.350548      22284.071      3699.8177      2993.3538      2932.4114     -1323.1212     -1777.0833      1638.4433    
 187652000   244.22408     -417.13694     -335.34312     -417.09917      0              4678.2112      31.128         21.465467      33.482271      22372.085      5439.2791      4755.1868      3840.1676     -544.00208     -821.7425      -183.57765    
 187654000   246.08582     -419.43125     -337.0139      -419.39352      0              2567.6206      31.128         21.465467      33.450282      22350.711      1867.3031      1501.1577      4334.4012     -1174.4201      95.28229       63.110025    
 187656000   245.40215     -416.70601     -334.51763     -416.66965      0              3660.5756      31.128         21.465467      33.524202      22400.103      4253.5146      1896.9379      4831.2743     -1044.0317      1233.2343      389.84869    
 187658000   237.43386     -417.65821     -338.13851     -417.62035      0              2977.6313      31.128         21.465467      33.517148      22395.389      5917.1018      438.36911      2577.4229      26.044348     -566.90629      405.06411    
 187660000   242.51021     -418.69554     -337.47571     -418.66245      0              4699.966       31.128         21.465467      33.417402      22328.741      5117.187       3827.4154      5155.2956     -3139.9929      1311.7167     -1408.692     
 187662000   245.62564     -418.97007     -336.70684     -418.93792      0              3091.2746      31.128         21.465467      33.443901      22346.447      4320.179       2800.0558      2153.5888      1358.7618      28.967852      30.905139    
 187664000   245.79808     -418.1009      -335.77991     -418.06957      0              2081.7555      31.128         21.465467      33.530691      22404.438      926.33776      4125.4683      1193.4606     -303.77027     -60.731966     -1056.0094    
 187666000   245.31994     -416.56368     -334.40284     -416.51621      0              2706.928       31.128         21.465467      33.455506      22354.201      1796.3392      3680.578       2643.8669     -829.18105      1247.2726     -473.20946    
 187668000   249.94093     -418.53209     -334.82361     -418.48974      0              3623.922       31.128         21.465467      33.263733      22226.063      3995.0874      3420.1521      3456.5266      185.24063     -349.65474     -316.07032    
 187670000   248.03919     -419.07365     -336.00209     -419.03559      0              4374.5125      31.128         21.465467      33.477112      22368.638      5677.4277      4677.415       2768.6948      91.479855     -1893.5961     -1076.5407    
 187672000   243.78496     -418.21592     -336.56916     -418.16847      0              3979.9129      31.128         21.465467      33.549823      22417.222      2027.8494      4757.8857      5154.0037      1592.9397      657.1188      -198.51159    
 187674000   242.78116     -418.69766     -337.38708     -418.65878      0              4515.3394      31.128         21.465467      33.684473      22507.192      5542.5985      3768.5679      4234.8517      426.29599     -1072.5855     -960.4567     
 187676000   241.41722     -418.00671     -337.15294     -417.97162      0              1637.3532      31.128         21.465467      33.650991      22484.82       2083.0262      1743.5379      1085.4955      365.61609      347.09979      331.40452    
 187678000   242.0912      -417.93285     -336.85335     -417.8914       0              3863.4019      31.128         21.465467      33.615609      22461.178      2511.5998      3645.2581      5433.3479     -432.69973     -575.0283       1366.7731    
 187680000   246.46382     -417.17418     -334.63024     -417.1298       0              2710.5117      31.128         21.465467      33.573099      22432.774      3533.9582      2663.0098      1934.5671     -1241.2866      3.8692031      622.90946    
 187682000   248.89677     -417.19762     -333.83885     -417.1621       0              3065.6714      31.128         21.465467      33.685984      22508.202      2179.8011      3195.2976      3821.9155      529.53277     -1177.8019      581.79466    
 187684000   250.66548     -419.98135     -336.03022     -419.95215      0              3094.0368      31.128         21.465467      33.582533      22439.078      4290.9155      2029.4494      2961.7456     -1281.9203      1201.0178     -1241.8677    
 187686000   248.41821     -418.25281     -335.05431     -418.21231      0              2719.7769      31.128         21.465467      33.667968      22496.163      2014.8701      2281.7643      3862.6961      474.17818     -803.00887      1873.5439    
 187688000   247.46908     -418.89456     -336.01394     -418.84622      0              3297.0686      31.128         21.465467      33.558079      22422.738      2036.4097      4116.2821      3738.5141      1588.7447      956.15903      151.31424    
 187690000   245.64551     -418.32033     -336.05044     -418.27923      0              2402.674       31.128         21.465467      33.642664      22479.257      3590.4556      1779.3646      1838.2018     -173.61536      531.59693      758.6391     
 187692000   240.40412     -416.521       -336.00653     -416.48811      0              2740.8974      31.128         21.465467      33.54299       22412.656      2646.8255      3676.3551      1899.5115      436.40755     -640.97598     -468.27984    
 187694000   246.84594     -418.89157     -336.21965     -418.85167      0              3193.8321      31.128         21.465467      33.54555       22414.367      3448.7144      1951.2903      4181.4916     -1073.2316     -41.760196     -132.74448    
 187696000   250.08819     -417.93624     -334.17845     -417.90436      0              2732.7885      31.128         21.465467      33.511874      22391.866      3033.0419      2175.5136      2989.8098      444.04997     -568.44409     -188.93331    
 187698000   238.34318     -418.45589     -338.63165     -418.41403      0              2515.7418      31.128         21.465467      33.559978      22424.007      2224.6424      3566.5981      1755.985       1300.5093      358.93672      488.58577    
 187700000   242.53475     -417.75008     -336.52203     -417.70662      0              3265.3591      31.128         21.465467      33.604301      22453.623      3147.7216      3794.7952      2853.5605      31.508658      746.47248      677.13716    
 187702000   248.68967     -417.21323     -333.92382     -417.16474      0              2507.0778      31.128         21.465467      33.769201      22563.805      1393.4331      3906.3499      2221.4506      1215.5895      392.18702     -1059.4164    
 187704000   244.75192     -418.29759     -336.32698     -418.2485       0              1739.6754      31.128         21.465467      33.826479      22602.077      167.95603      1347.6532      3703.4169     -1231.8337     -1370.0924      446.86595    
 187706000   252.54482     -419.72261     -335.14206     -419.67818      0              3648.5589      31.128         21.465467      33.658608      22489.91       2955.8225      4520.3981      3469.4561     -339.89992      778.62599     -272.28938    
 187708000   250.77852     -418.09231     -334.10331     -418.04782      0              3986.7545      31.128         21.465467      33.74347       22546.612      3970.6466      5262.0255      2727.5913     -450.10255     -709.14818      763.09478    
 187710000   238.64456     -415.69178     -335.7666      -415.65713      0              3804.4403      31.128         21.465467      33.803774      22586.906      4594.6766      4440.204       2378.4402     -231.39255     -1904.5206      1425.6185    
 187712000   247.7997      -416.9939      -334.00256     -416.96115      0              2271.2034      31.128         21.465467      33.512322      22392.165      820.96415      5141.5764      851.06966     -582.53932      474.05969     -1534.23      
 187714000   246.36184     -418.98208     -336.47229     -418.94759      0              2437.4268      31.128         21.465467      33.523386      22399.557      2686.6383      2093.3945      2532.2477     -1171.7172     -125.67699     -337.36256    
 187716000   240.75962     -419.61525     -338.98171     -419.57652      0              1537.634       31.128         21.465467      33.794024      22580.391      1483.521       3402.4678     -273.08686     -756.30902      219.78763      142.82855    
 187718000   239.44143     -420.30604     -340.11399     -420.27243      0              6329.4729      31.128         21.465467      33.56246       22425.666      7406.8011      5342.0487      6239.5688     -266.96508     -263.594       -473.61276    
 187720000   246.22089     -417.30805     -334.84546     -417.27856      0              1927.1027      31.128         21.465467      33.5746        22433.778      1718.3344      1198.7087      2864.2649     -782.58328     -889.97132      287.03853    
 187722000   242.00901     -417.63182     -336.57985     -417.59678      0              3488.5793      31.128         21.465467      33.606495      22455.089      3211.4854      4232.5824      3021.6703     -472.64595     -575.40144     -308.41334    
 187724000   235.30151     -415.41928     -336.61373     -415.39101      0              2481.7607      31.128         21.465467      33.506701      22388.409      2196.0444      2806.7062      2442.5313      594.29009     -252.28288      622.49042    
 187726000   248.95318     -418.94634     -335.56867     -418.91767      0              2354.9583      31.128         21.465467      33.329049      22269.706      1446.6436      3024.4629      2593.7683      876.30608     -910.68302     -2111.1711    
 187728000   250.12408     -417.58749     -333.81767     -417.55548      0              3154.2305      31.128         21.465467      33.472906      22365.828      3540.0115      3815.5147      2107.1651      705.18916      1382.2216     -271.34299    
 187730000   247.11279     -417.77205     -335.01076     -417.74424      0              1879.2433      31.128         21.465467      33.453831      22353.082      471.46127      1688.6978      3477.5709      893.1288       4.9087539      1540.7305    
 187732000   254.49347     -417.82261     -332.58943     -417.79867      0              4988.1756      31.128         21.465467      33.297145      22248.388      3647.1007      6246.8493      5070.5768     -2376.4023     -374.73752     -287.0271     
 187734000   243.2065      -416.67759     -335.22457     -416.64888      0              4623.708       31.128         21.465467      33.272346      22231.818      5930.3735      4188.569       3752.1815      1245.3994     -770.7166      -150.87982    
 187736000   246.72692     -418.6856      -336.05354     -418.65894      0              2636.0778      31.128         21.465467      33.332029      22271.697      4162.646       2683.562       1062.0253      228.47082     -363.95553     -1703.4336    
 187738000   251.99371     -417.36686     -332.97088     -417.32932      0              2680.5246      31.128         21.465467      33.205454      22187.122      2854.4048      2753.7777      2433.3913     -380.67814      82.547202      1664.2863    
 187740000   248.1442      -418.64251     -335.53578     -418.60461      0              1464.7482      31.128         21.465467      33.510066      22390.657      101.45411      2089.9603      2202.8303      725.62397      1200.8613      479.29222    
 187742000   245.33428     -418.18082     -336.01517     -418.1474       0              4395.0334      31.128         21.465467      33.483555      22372.943      3218.6839      5839.5054      4126.9109     -787.81207      407.9334      -1025.0504    
 187744000   248.72764     -417.76517     -334.46304     -417.7416       0              2654.794       31.128         21.465467      33.503357      22386.175      1692.7963      3779.0302      2492.5556      1453.5483     -242.98308      1370.4463    
 187746000   243.24449     -417.94933     -336.48358     -417.92019      0              3356.1097      31.128         21.465467      33.496734      22381.749      3483.0025      2965.6985      3619.6281      1999.6015      1495.7695     -35.072253    
 187748000   242.78492     -421.00746     -339.69562     -420.98531      0              2338.2587      31.128         21.465467      33.526549      22401.671      2634.1703      2031.9191      2348.6867      145.17864     -591.90129      1114.0373    
 187750000   244.95431     -418.65229     -336.6139      -418.62321      0              1723.9412      31.128         21.465467      33.38096       22304.392      1248.508       2772.017       1151.2985      693.97921      1116.6795      2085.8596    
 187752000   244.37759     -417.31928     -335.47403     -417.29115      0              1403.3094      31.128         21.465467      33.498172      22382.71       2653.615       112.96184      1443.3514      842.51682      797.76163      805.40465    
 187754000   240.90719     -419.49511     -338.81215     -419.46713      0              4096.2452      31.128         21.465467      33.412691      22325.593      4797.9472      3531.9162      3958.8723     -704.7191      -886.22601     -843.2109     
 187756000   247.30622     -417.81383     -334.98776     -417.78963      0              4403.1257      31.128         21.465467      33.451902      22351.793      7096.5886      2628.9892      3483.7992     -331.32512      606.13612      162.97417    
 187758000   236.28827     -416.96085     -337.82482     -416.93375      0              2569.9244      31.128         21.465467      33.34207       22278.406     -122.2141       3957.1923      3874.7951      1399.0663      112.82023     -186.94319    
 187760000   247.81835     -418.85543     -335.85783     -418.8297       0              2814.753       31.128         21.465467      33.396334      22314.664      4204.2702      1463.5289      2776.4599     -328.73263     -856.88161      518.93443    
 187762000   241.69089     -419.26934     -338.32391     -419.24823      0              2419.7942      31.128         21.465467      33.349563      22283.413      1920.1122      4274.9072      1064.3634      23.559424     -1126.9597     -320.81393    
 187764000   244.89923     -421.82224     -339.8023      -421.79431      0              1889.0957      31.128         21.465467      33.246632      22214.637      2360.2449      1798.6235      1508.4188     -398.67108     -999.47486      854.72524    
 187766000   247.19528     -417.69537     -334.90645     -417.66789      0              1567.8263      31.128         21.465467      33.248879      22216.138      1785.9768      536.95016      2380.5521     -788.19754     -356.97435      994.81344    
 187768000   240.08517     -419.58646     -339.17881     -419.55596      0              2622.2311      31.128         21.465467      33.298162      22249.068      3263.9564      3947.8357      654.90136     -258.26507     -170.57285      14.476188    
 187770000   251.14385     -417.68975     -333.5784      -417.65548      0              1778.4235      31.128         21.465467      33.457599      22355.6        882.93583      2593.7961      1858.5385      45.402553      795.15036      1330.1069    
 187772000   241.58689     -417.17345     -336.26285     -417.13296      0              3268.6146      31.128         21.465467      33.430645      22337.59       5034.3042      1990.9698      2780.5698     -648.1388      -994.82396      1859.4342    
 187774000   246.64198     -419.17259     -336.56897     -419.13728      0              3216.2331      31.128         21.465467      33.416648      22328.238      4088.3871      3896.9768      1663.3355      1142.4774      208.66722     -819.11746    
 187776000   247.10111     -418.54798     -335.7906      -418.51057      0              3471.6871      31.128         21.465467      33.684675      22507.327      1844.1478      4680.78        3890.1333     -586.10317      837.78351     -312.33113    
 187778000   243.05049     -419.12192     -337.72114     -419.0982       0              2418.0121      31.128         21.465467      33.506501      22388.275      2460.3714      1336.2608      3457.4039      325.51668     -614.57249     -1702.8762    
 187780000   243.73756     -417.08071     -335.44982     -417.04974      0              3164.7059      31.128         21.465467      33.418934      22329.765      3140.2826      4604.155       1749.6803      337.06339     -373.66378     -284.64417    
 187782000   247.39291     -419.70407     -336.84896     -419.67463      0              3385.3769      31.128         21.465467      33.570823      22431.254      5216.0207      1964.492       2975.6179      1412.5535     -692.70688     -763.17849    
 187784000   248.01611     -417.5178      -334.45398     -417.48962      0              1211.1785      31.128         21.465467      33.596045      22448.106      938.86295      719.53455      1975.1381      79.573041     -1.4583789     -1431.2227    
 187786000   243.1979      -418.22961     -336.77946     -418.20321      0              2028.6412      31.128         21.465467      33.483444      22372.869      2586.1734      1060.4025      2439.3476     -443.43754     -1095.5175     -318.80693    
 187788000   241.02135     -416.38761     -335.66642     -416.36118      0              1774.1243      31.128         21.465467      33.666905      22495.453      2506.703       1502.1684      1313.5015     -707.11153     -299.59508      615.06783    
 187790000   243.54526     -418.27203     -336.70555     -418.2373       0              1859.6467      31.128         21.465467      33.642439      22479.106      579.54298      3145.4892      1853.9077      408.72453      81.265293     -1276.4567    
 187792000   249.7169      -415.8993      -332.26585     -415.86972      0              2760.9546      31.128         21.465467      33.665354      22494.417      3407.8927      1209.0268      3665.9442     -673.96433     -1139.3881     -206.51123    
 187794000   242.51329     -419.34658     -338.12571     -419.31852      0              3617.7066      31.128         21.465467      33.55244       22418.97       4806.1337      3015.2133      3031.7729     -961.29119      627.5097       590.20129    
 187796000   245.09475     -417.67799     -335.59257     -417.64896      0              2005.6124      31.128         21.465467      33.555784      22421.205      1277.508       2924.6993      1814.6299      204.19205     -358.748        237.36108    
 187798000   251.99176     -417.56139     -333.16607     -417.52511      0              2971.4008      31.128         21.465467      33.42571       22334.293      3190.1392      3533.8381      2190.2252     -10.654358     -1385.0299     -506.90562    
 187800000   245.68454     -419.79696     -337.514       -419.77428      0              2986.596       31.128         21.465467      33.373957      22299.712      341.94579      4799.853       3817.9893      482.6893       105.78418      34.178369    
 187802000   241.53201     -420.02511     -339.13289     -419.99772      0              1205.3732      31.128         21.465467      33.630446      22471.093      1592.3077      141.96166      1881.8503     -1213.3247     -163.62347      515.4746     
 187804000   241.65256     -415.12864     -334.19605     -415.09946      0              4359.956       31.128         21.465467      33.757077      22555.704      5798.3602      3471.2398      3810.2681     -1077.371       941.91685      151.47365    
 187806000   244.44778     -416.78735     -334.9186      -416.75622      0              2260.4853      31.128         21.465467      33.613185      22459.559      1650.7743      2436.7336      2693.948       621.74117     -76.412752     -43.03099     
 187808000   241.16163     -418.25296     -337.48478     -418.22766      0              2325.8646      31.128         21.465467      33.43663       22341.589      1396.8843      2317.9206      3262.7889      610.55118      985.84191      963.86311    
 187810000   241.49059     -417.03184     -336.15349     -417.00372      0              2501.4876      31.128         21.465467      33.55819       22422.812      2077.1043      3446.6384      1980.7201     -602.06836      412.05265     -1326.2195    
 187812000   245.25414     -416.85917     -334.72036     -416.82993      0              3418.4714      31.128         21.465467      33.465322      22360.76       3266.7197      2781.1869      4207.5075      1207.4112      770.65768      16.49088     
 187814000   249.5452      -416.65163     -333.07569     -416.62553      0              2714.5648      31.128         21.465467      33.425804      22334.355      1782.0646      2627.0486      3734.5813      1343.6723     -166.49439      47.549977    
 187816000   252.01294     -416.19616     -331.79374     -416.16289      0              1347.4203      31.128         21.465467      33.587529      22442.416      1354.5597      1618.3812      1069.3199     -217.61624      819.01467      957.13458    
 187818000   245.09081     -415.97981     -333.8957      -415.94017      0              4197.9838      31.128         21.465467      33.41206       22325.172      5093.2814      3081.3385      4419.3315      722.99981     -255.26366      1185.3924    
 187820000   246.06521     -418.02357     -335.61312     -417.99331      0              1575.9766      31.128         21.465467      33.544618      22413.744      1337.6144      839.63833      2550.6772     -1543.182       102.69374     -311.75541    
 187822000   253.14148     -417.11793     -332.33755     -417.09322      0              4321.9505      31.128         21.465467      33.559131      22423.442      3954.5754      4200.092       4811.184       1120.9157     -816.23507     -334.03528    
 187824000   245.10364     -415.72655     -333.63815     -415.7017       0              3017.8839      31.128         21.465467      33.662594      22492.573      2715.2355      4194.3754      2144.0409     -206.6164      -847.59857      106.19037    
 187826000   251.2437      -417.05522     -332.91043     -417.01763      0              5293.1994      31.128         21.465467      33.535204      22407.454      4457.6941      6587.3897      4834.5144      1767.854       604.40617     -120.33271    
 187828000   243.22184     -418.73447     -337.2763      -418.69514      0              4117.1449      31.128         21.465467      33.467927      22362.501      4560.3037      3553.3412      4237.7899     -419.50748      410.67474     -209.25854    
 187830000   239.66557     -418.59095     -338.32383     -418.5646       0              2254.2711      31.128         21.465467      33.510774      22391.13       498.69207      1980.1598      4283.9615      321.43649     -164.74715      40.721451    
 187832000   246.48227     -415.96964     -333.41951     -415.93562      0              3760.825       31.128         21.465467      33.448015      22349.196      2967.0879      4706.9077      3608.4795      1305.5975      229.07407      90.03956     
 187834000   252.30028     -419.00344     -334.50478     -418.97821      0              1573.9864      31.128         21.465467      33.566879      22428.619      1429.6965      1993.4609      1298.8018     -283.55227      856.22772     -54.963368    
 187836000   247.99235     -418.01459     -334.95872     -417.98262      0              4175.4683      31.128         21.465467      33.658816      22490.049      3273.0797      5400.0953      3853.2297     -679.42453      1469.1055     -732.63165    
 187838000   249.6332      -417.87835     -334.27294     -417.85096      0              1259.2311      31.128         21.465467      33.671446      22498.488      1821.122       63.637482      1892.9338     -1228.6811      1100.2831      1849.6532    
 187840000   240.73491     -418.05118     -337.42592     -418.01775      0              4981.8846      31.128         21.465467      33.612078      22458.819      4393.6012      6591.1158      3960.9369     -718.04335      358.73638      974.39037    
 187842000   249.70822     -418.42263     -334.79209     -418.40016      0              2153.459       31.128         21.465467      33.684101      22506.943      963.98451      4104.6497      1391.7427     -631.00206      231.83427     -623.77818    
 187844000   247.14112     -417.70978     -334.939       -417.67605      0              3960.4078      31.128         21.465467      33.743872      22546.881      4014.9744      3228.4903      4637.7589      1101.2488      68.137738     -425.07809    
 187846000   245.71931     -418.48891     -336.19431     -418.45986      0              1533.0254      31.128         21.465467      33.558281      22422.873      2240.665      -269.62681      2628.0378     -69.04043      -417.76908      182.54529    
 187848000   246.48386     -416.72163     -334.17098     -416.68654      0              3508.6462      31.128         21.465467      33.634899      22474.068      1810.1751      4031.6298      4684.1337     -312.27632      159.59098      1348.9311    
 187850000   242.89389     -417.23673     -335.8884      -417.19855      0              3738.0932      31.128         21.465467      33.66122       22491.655      2508.7939      4605.4311      4100.0545      627.30426     -287.99521     -622.209      
 187852000   248.26772     -417.32421     -334.17611     -417.28068      0              1832.8637      31.128         21.465467      33.541361      22411.568      2386.9289      1552.322       1559.3402     -464.9939      -1253.0769      1480.5275    
 187854000   249.60587     -417.49827     -333.90201     -417.46179      0              2577.3777      31.128         21.465467      33.449322      22350.07       2337.2456      2689.7719      2705.1156      280.83484      382.41338     -32.591804    
 187856000   254.20916     -418.55086     -333.4129      -418.51718      0              3861.3437      31.128         21.465467      33.572409      22432.313      2931.6535      1597.3607      7055.0169     -592.54832     -159.74203      76.358782    
 187858000   241.75895     -415.44448     -334.47626     -415.41174      0              3779.9846      31.128         21.465467      33.423512      22332.824      3835.8494      3532.6957      3971.4086      684.17729     -483.16691      376.25235    
 187860000   244.4008      -418.30615     -336.45313     -418.27316      0              4169.9419      31.128         21.465467      33.383932      22306.378      3261.132       2746.0967      6502.5972     -371.08316     -1638.3061      109.75761    
 187862000   245.01173     -416.89575     -334.83813     -416.86461      0              2594.7897      31.128         21.465467      33.373201      22299.207      2325.3843      3332.468       2126.5169      1442.137      -1443.1137      328.58517    
 187864000   241.05746     -416.90566     -336.17237     -416.86883      0              2450.4875      31.128         21.465467      33.65156       22485.2        3063.7296      1019.0118      3268.721      -397.70833     -632.30927      915.11108    
 187866000   243.63907     -418.82008     -337.22218     -418.77791      0              4233.562       31.128         21.465467      33.431469      22338.141      5568.1386      3738.0755      3394.4721     -392.4505      -189.5615       1015.4375    
 187868000   241.44326     -417.77544     -336.91294     -417.74864      0              3692.1882      31.128         21.465467      33.596214      22448.22       4217.1585      3801.2018      3058.2044     -153.10533     -126.67371      444.24631    
 187870000   243.92411     -418.39902     -336.70566     -418.36643      0              4221.9476      31.128         21.465467      33.600658      22451.189      5744.2096      4682.8366      2238.7965     -853.7532       138.72655     -74.507638    
 187872000   244.89939     -414.98884     -332.96885     -414.95836      0              2515.5342      31.128         21.465467      33.401407      22318.054      3926.454       2566.8459      1053.3027      1037.1189     -1282.2877      153.50729    
 187874000   243.66689     -415.4526      -333.84538     -415.40915      0              3268.4387      31.128         21.465467      33.702131      22518.991      3177.34        3397.7497      3230.2263      393.12829      1305.9847      796.63504    
 187876000   248.22044     -417.76083     -334.62856     -417.7316       0              2411.9008      31.128         21.465467      33.59437       22446.987      1844.3632      4434.7935      956.54557     -1605.9051      864.00084      101.8811     
 187878000   242.54991     -415.35989     -334.12676     -415.32454      0              1001.8173      31.128         21.465467      33.689781      22510.738      1610.9874      2129.9556     -735.49103     -464.94066     -2163.0968     -884.24781    
 187880000   241.97625     -419.58166     -338.54066     -419.55164      0              2511.3187      31.128         21.465467      33.528098      22402.706      1957.3151      2876.4198      2700.2211      1595.7604      239.69916      55.088021    
 187882000   246.56198     -417.03432     -334.45749     -417.00463      0              682.09338      31.128         21.465467      33.678339      22503.093      650.07869      317.84864      1078.3528      912.23762      626.12095      882.61829    
 187884000   242.68654     -418.9444      -337.66551     -418.91754      0              2598.3368      31.128         21.465467      33.554659      22420.454      2479.8836      2797.1245      2518.0022      2278.858      -653.424        1181.7625    
 187886000   240.70176     -421.37383     -340.75967     -421.34445      0              2112.9707      31.128         21.465467      33.703691      22520.033      6.7535137      2108.5406      4223.6181      1598.8913      997.81721      1856.9312    
 187888000   241.87664     -419.70649     -338.69885     -419.6828       0              2442.7197      31.128         21.465467      33.481058      22371.275      2100.2297      2700.3377      2527.5917     -621.86304     -409.03616      267.18405    
 187890000   240.45787     -420.78836     -340.25588     -420.76125      0              2674.6635      31.128         21.465467      33.534319      22406.862      1156.6819      3343.2868      3524.0219     -102.95005     -221.69514      1563.7305    
 187892000   244.90562     -419.01959     -336.9975      -418.98025      0              2644.6837      31.128         21.465467      33.824012      22600.429      1189.3853      3246.5608      3498.1048      1694.2002     -10.47961       821.4806     
 187894000   249.65227     -418.82499     -335.21319     -418.79412      0              2338.2252      31.128         21.465467      33.591911      22445.344      1265.0264      3088.0918      2661.5575      1454.0647      169.09422      988.86052    
 187896000   246.49575     -416.40234     -333.8477      -416.3727       0              3100.0558      31.128         21.465467      33.503452      22386.238      3522.163       2526.6603      3251.3441      600.83147     -1195.5693      1297.4063    
 187898000   243.81839     -417.36728     -335.70932     -417.33795      0              3498.6017      31.128         21.465467      33.525377      22400.888      4255.5386      4716.5628      1523.7036      600.19482      1513.4972      163.67238    
 187900000   240.231       -418.12772     -337.67123     -418.09733      0              2507.4353      31.128         21.465467      33.518492      22396.287      2832.7504      3463.545       1226.0106     -741.94562      536.70836      493.12664    
 187902000   243.20688     -417.06502     -335.61186     -417.03487      0              2955.571       31.128         21.465467      33.450321      22350.737      2992.9879      3683.3576      2190.3676      1520.2787     -732.05727      818.77726    
 187904000   245.36224     -419.98609     -337.81108     -419.96166      0              4625.5333      31.128         21.465467      33.513829      22393.172      5630.1059      4651.3476      3595.1462     -308.22191      603.76227     -786.71977    
 187906000   247.95838     -415.96885     -332.92436     -415.94115      0              2811.093       31.128         21.465467      33.480066      22370.612      1381.8009      2712.084       4339.3941      346.75749      1441.52        374.44784    
 187908000   244.73794     -413.89896     -331.93303     -413.87253      0              2691.4657      31.128         21.465467      33.35528       22287.233      2445.2963      4704.1154      924.98537     -1400.1371     -756.15423      181.50038    
 187910000   249.99066     -418.3534      -334.62827     -418.3302       0              5527.8485      31.128         21.465467      33.38992       22310.379      6287.5976      6865.3837      3430.5643     -192.87808     -526.09505     -76.697491    
 187912000   244.33825     -414.9012      -333.06914     -414.87624      0              3275.1805      31.128         21.465467      33.369467      22296.712      3658.8006      3867.3067      2299.4341     -87.753824      183.12527      2709.1652    
 187914000   249.31034     -418.87292     -335.37564     -418.84696      0              4945.4342      31.128         21.465467      33.430706      22337.631      5911.9998      3681.6809      5242.6219     -267.44554      913.62062      275.34325    
 187916000   243.81459     -416.4661      -334.80942     -416.43905      0              4174.7931      31.128         21.465467      33.318729      22262.81       4758.2749      2022.4548      5743.6496     -424.17979      1790.5186      473.92037    
 187918000   249.66907     -416.48913     -332.87171     -416.4593       0              3698.5812      31.128         21.465467      33.489439      22376.875      2686.1161      4684.503       3725.1244     -333.02404      1519.8309      986.6797     
 187920000   245.41255     -418.50553     -336.31366     -418.48166      0              2711.5718      31.128         21.465467      33.503435      22386.227      1375.3616      4508.5731      2250.7807      573.22376      1026.5905      1050.1953    
 187922000   235.48515     -418.67217     -339.80513     -418.64428      0              1633.1371      31.128         21.465467      33.505702      22387.741      1129.2618      2430.2497      1339.8997      696.44645      707.34041      1398.7104    
 187924000   243.26893     -416.55443     -335.08049     -416.52815      0              1757.6973      31.128         21.465467      33.663783      22493.367      3078.0519      1470.7323      724.30785      1243.1441      712.32692     -449.46055    
 187926000   243.47164     -418.81131     -337.26948     -418.7826       0              2844.0592      31.128         21.465467      33.704256      22520.411      2880.7218      2534.7113      3116.7444      790.67793     -468.58783      477.05045    
 187928000   242.55185     -416.8947      -335.66092     -416.86089      0              1244.424       31.128         21.465467      33.499009      22383.269      867.60925      1684.864       1180.7988     -1253.6356     -454.07236      440.30028    
 187930000   242.9533      -420.15376     -338.78553     -420.13092      0              3051.0823      31.128         21.465467      33.688149      22509.649      1370.2428      5341.5213      2441.4828      914.62564      693.34389      68.312294    
 187932000   237.8157      -420.44354     -340.79596     -420.41613      0              3237.099       31.128         21.465467      33.47684       22368.457      3018.7402      2383.1654      4309.3914      1658.8115      241.96601      889.1485     
 187934000   248.13294     -420.33973     -337.23677     -420.3194       0              4120.8794      31.128         21.465467      33.530144      22404.073      4052.3084      3650.4441      4659.8857     -380.49047      1228.0604     -437.67458    
 187936000   246.25317     -420.51334     -338.03995     -420.48804      0              4359.6371      31.128         21.465467      33.644004      22480.151      2178.8363      5594.3889      5305.686       649.81939      1153.1924      449.7443     
 187938000   243.49304     -420.09036     -338.54137     -420.06089      0              2293.4996      31.128         21.465467      33.623409      22466.39       4331.5722      603.44931      1945.4774     -583.37377     -816.96095     -438.8788     
 187940000   240.02374     -417.27066     -336.88358     -417.24715      0              3332.674       31.128         21.465467      33.466834      22361.771      1262.5623      5033.3706      3702.089       619.11509     -28.102486      85.526345    
 187942000   241.71404     -420.53003     -339.57685     -420.50429      0              3686.6321      31.128         21.465467      33.339774      22276.872      1921.157       5618.8632      3519.8762     -987.9015       724.69212      82.12924     
 187944000   243.54187     -418.32433     -336.75898     -418.30053      0              3765.6786      31.128         21.465467      33.306227      22254.457      4096.1264      3015.4429      4185.4666      1141.8142     -1259.8677     -711.86009    
 187946000   237.04243     -419.14354     -339.75494     -419.11366      0              2357.5633      31.128         21.465467      33.405666      22320.9        4105.2128      1558.6495      1408.8276      9.4742776     -337.41568     -186.31009    
 187948000   247.24093     -417.62465     -334.82044     -417.6001       0              2479.6467      31.128         21.465467      33.303988      22252.961      4122.5106      1855.8891      1460.5405     -1709.0155      490.03505     -169.74235    
 187950000   245.58321     -416.13233     -333.88331     -416.11268      0              4900.6462      31.128         21.465467      33.097999      22115.324      5052.6427      4648.5379      5000.7579     -339.42206      611.3661      -533.19211    
 187952000   243.046       -417.05572     -335.65645     -417.02669      0              3227.8239      31.128         21.465467      33.358179      22289.17       4740.2392      3361.3967      1581.8357     -733.95976     -190.84746      1302.3916    
 187954000   249.67479     -418.70053     -335.08119     -418.66797      0              4484.0856      31.128         21.465467      33.196896      22181.405      3599.7218      4586.0955      5266.4395      1631.2647      1458.422       309.16593    
 187956000   239.49135     -416.41589     -336.20712     -416.38788      0              502.47495      31.128         21.465467      33.409336      22323.352     -330.1473       854.86934      982.70282      434.16399     -104.20352      391.11482    
 187958000   245.34054     -417.13096     -334.96322     -417.10448      0              2799.5572      31.128         21.465467      33.550836      22417.899      1981.7658      2053.5891      4363.3168     -1200.7912     -800.34545      953.07321    
 187960000   252.22589     -419.42815     -334.95441     -419.4017       0              3585.5538      31.128         21.465467      33.394625      22313.522      2680.5296      3591.7578      4484.374       389.29394      1486.418      -357.23916    
 187962000   244.10993     -416.56627     -334.81068     -416.53903      0              1303.8424      31.128         21.465467      33.531967      22405.291      1121.7122      2034.6762      755.13873     -423.60102      698.31385      1154.7894    
 187964000   255.80463     -418.23641     -332.56411     -418.21311      0              2990.7624      31.128         21.465467      33.559212      22423.495      4661.3013      1487.7984      2823.1875      844.49636      311.86084      727.83587    
 187966000   240.71373     -417.39833     -336.78016     -417.3723       0              1833.344       31.128         21.465467      33.431178      22337.946     -310.89214      3115.3642      2695.5599      510.46097     -360.75914      1091.8866    
 187968000   241.78586     -415.15821     -334.18098     -415.12997      0              3254.5974      31.128         21.465467      33.515333      22394.177      2786.6902      4033.116       2943.986      -11.0263       -135.09404     -451.73045    
 187970000   247.86302     -417.40965     -334.3971      -417.3862       0              4025.8169      31.128         21.465467      33.349408      22283.309      3611.3399      3659.4127      4806.698      -470.29954     -420.14503     -854.93413    
 187972000   241.77118     -416.94388     -335.97156     -416.91894      0              3441.1073      31.128         21.465467      33.685372      22507.792      3640.2129      5254.8643      1428.2447     -308.86348     -84.957434     -1771.4277    
 187974000   251.19606     -418.51076     -334.38192     -418.48981      0              2387.6678      31.128         21.465467      33.464413      22360.153      2068.8901      1716.2034      3377.9098     -57.557865     -1265.881       1246.279     
 187976000   246.33654     -416.61116     -334.10985     -416.58321      0              3108.4981      31.128         21.465467      33.435996      22341.165      5014.7156      2643.7062      1667.0723      759.89134      1524.1431      47.009131    
 187978000   244.92484     -419.40217     -337.37365     -419.38044      0              3358.2019      31.128         21.465467      33.44765       22348.952      3908.3038      3869.8795      2296.4224      748.05485     -1365.3039      166.49339    
 187980000   243.27583     -418.79094     -337.3147      -418.77088      0              2304.014       31.128         21.465467      33.44179       22345.037      2859.8123      2355.5576      1696.672       717.73576     -148.0281      -1310.3489    
 187982000   246.44566     -418.82795     -336.29008     -418.80681      0              3988.0325      31.128         21.465467      33.398636      22316.203      4551.2716      4492.0802      2920.7456     -742.50395      179.32135      611.98892    
 187984000   245.22452     -418.96485     -336.83597     -418.94163      0              3465.756       31.128         21.465467      33.408793      22322.989      5138.0328      2144.9292      3114.306       78.516372      331.40216     -1040.9241    
 187986000   242.57412     -417.83987     -336.59864     -417.81835      0              3755.5588      31.128         21.465467      33.400742      22317.61       5739.8108      2632.6082      2894.2573     -481.75298      1613.0085      601.47757    
 187988000   245.81095     -416.82318     -334.49789     -416.80035      0              3745.2193      31.128         21.465467      33.371664      22298.18       3244.4987      3331.351       4659.8081      811.66255     -758.5889      -351.86683    
 187990000   247.14722     -417.90514     -335.13231     -417.88566      0              4259.092       31.128         21.465467      33.257214      22221.708      5494.8986      4689.2466      2593.1307     -268.64302     -1685.9677     -984.05826    
 187992000   248.9451      -419.02462     -335.64966     -419.00518      0              3219.7314      31.128         21.465467      33.352578      22285.428      4101.486       3742.5359      1815.1724     -122.36777      829.87633     -385.27111    
 187994000   242.3775      -416.62004     -335.44465     -416.59817      0              3660.7801      31.128         21.465467      33.394394      22313.368      4746.3801      4093.328       2142.6322     -433.89448      366.42041     -1297.114     
 187996000   246.93754     -415.63618     -332.93358     -415.61632      0              4831.0723      31.128         21.465467      33.309423      22256.593      4962.026       4432.4315      5098.7595      509.75492      1672.2192     -1571.3533    
 187998000   244.43595     -416.65445     -334.78966     -416.62892      0              2745.6538      31.128         21.465467      33.293465      22245.93       2024.4901      1829.3569      4383.1144     -111.52924      588.88696     -607.74258    
 188000000   239.4618      -417.45952     -337.26065     -417.43465      0              3853.7015      31.128         21.465467      32.983317      22038.696      4897.8001      3987.163       2676.1412     -175.08638      1205.6172      9.4162136    
 188002000   250.45259     -417.72975     -333.84991     -417.70809      0              4285.9697      31.128         21.465467      33.042002      22077.908      5675.1744      3336.4332      3846.3015     -548.69102     -439.32809      54.146986    
 188004000   247.85611     -417.6757      -334.66546     -417.64915      0              4027.8185      31.128         21.465467      33.095442      22113.615      4143.8204      4314.9774      3624.6578     -1619.4603     -123.52485      31.533387    
 188006000   246.40106     -418.05691     -335.53398     -418.03318      0              3980.5021      31.128         21.465467      33.060117      22090.012      5123.1683      3560.2838      3258.0542     -1206.9122      543.13617     -545.06843    
 188008000   244.09324     -417.92665     -336.17664     -417.90678      0              3697.8423      31.128         21.465467      33.175152      22166.876      1974.9008      2882.8271      6235.7989      1279.8436     -539.28753      793.23689    
 188010000   243.07832     -416.7546      -335.34451     -416.73878      0              3953.5886      31.128         21.465467      33.183429      22172.406      1851.7058      4456.7181      5552.3417      361.11841      822.34237      725.07334    
 188012000   249.21471     -419.11892     -335.65366     -419.10812      0              3866.5377      31.128         21.465467      33.08696       22107.947      1907.37        3714.9763      5977.2668      1129.8917      415.28581     -435.72566    
 188014000   250.59302     -418.26869     -334.34182     -418.24966      0              3978.5719      31.128         21.465467      33.095097      22113.384      4408.2506      4723.2917      2804.1733     -26.976695      761.47428     -515.97093    
 188016000   242.39243     -417.51558     -336.33519     -417.49337      0              2664.3298      31.128         21.465467      33.124988      22133.357      2604.8655      3652.9328      1735.1912     -641.19851      870.27279      274.90291    
 188018000   246.57086     -416.85598     -334.27619     -416.83532      0              3554.6988      31.128         21.465467      33.346804      22281.569      2514.9397      3011.4009      5137.7559      451.01545      1138.3802     -295.59864    
 188020000   241.85633     -415.95664     -334.9558      -415.93578      0              2492.1941      31.128         21.465467      33.222207      22198.316      5313.3189      1107.9343      1055.3293     -232.01813     -1429.4778      513.52243    
 188022000   244.36691     -417.45921     -335.61755     -417.44114      0              4212.6791      31.128         21.465467      33.26219       22225.032      3086.6623      5044.9401      4506.435       1218.4448     -945.37234      1031.8923    
 188024000   238.39198     -419.26011     -339.41953     -419.24351      0              4142.378       31.128         21.465467      33.302583      22252.022      5689.5774      2030.9623      4706.5943      808.36185      743.79459      95.463137    
 188026000   244.77533     -418.39583     -336.41739     -418.37513      0              3319.2342      31.128         21.465467      33.236317      22207.744      4783.976       1382.8625      3790.8642     -502.74238     -426.48389      229.62997    
 188028000   241.90745     -420.00051     -338.98256     -419.98091      0              3462.7684      31.128         21.465467      33.156606      22154.483      1822.5465      4536.12        4029.6388     -420.8293       477.25888      357.08126    
 188030000   241.98145     -416.63742     -335.59468     -416.61112      0              1865.2651      31.128         21.465467      33.241006      22210.878      2502.1966      155.32255      2938.2762      1216.4265     -198.28052      90.156066    
 188032000   246.08604     -416.85615     -334.43872     -416.83123      0              2894.3755      31.128         21.465467      33.314893      22260.247      4348.949       1410.289       2923.8886     -786.10392     -1385.7392      284.73857    
 188034000   246.01355     -418.56855     -336.17541     -418.54545      0              1537.1037      31.128         21.465467      33.284156      22239.709      522.20425      855.04946      3234.0574     -478.90966      360.92888      1384.2446    
 188036000   241.28427     -415.47929     -334.67005     -415.45392      0              4470.0838      31.128         21.465467      33.277111      22235.002      4312.3295      4204.7687      4893.1533     -48.025101      884.94607     -213.39324    
 188038000   241.15554     -417.24754     -336.48141     -417.22273      0              2604.0202      31.128         21.465467      33.255192      22220.356      2452.0278      954.17834      4405.8544      396.31006     -128.98748      702.21149    
 188040000   241.70782     -419.73943     -338.78833     -419.72253      0              4089.0488      31.128         21.465467      33.172521      22165.117      3968.7866      4630.7747      3667.585       968.12345     -917.9167       499.99123    
 188042000   249.98458     -419.24317     -335.52008     -419.2175       0              3416.2424      31.128         21.465467      33.423036      22332.506      3087.6113      3531.7731      3629.3429      605.94786      892.99398      1135.0498    
 188044000   245.40388     -418.37715     -336.18819     -418.35036      0              2731.5737      31.128         21.465467      33.275603      22233.994      698.7064       4271.8851      3224.1295      2141.3821     -883.79642     -443.49151    
 188046000   239.38468     -419.38906     -339.21601     -419.36761      0              3161.5937      31.128         21.465467      33.127793      22135.231      3512.1274      3178.1918      2794.4619      868.42636     -16.72702      -563.65426    
 188048000   252.26984     -420.51331     -336.02486     -420.49995      0              3693.8953      31.128         21.465467      33.124349      22132.93       3289.622       4369.0877      3422.9761      848.34643      177.76911      1568.8731    
 188050000   248.07543     -416.40628     -333.32259     -416.38204      0              3934.1012      31.128         21.465467      33.151697      22151.204      4588.5382      4987.5774      2226.1881     -95.038043     -1235.8504     -1523.7267    
 188052000   249.09201     -420.47805     -337.05389     -420.454        0              4037.2121      31.128         21.465467      32.913662      21992.154      5926.8496      1498.544       4686.2428      1537.7642     -966.34113     -791.82885    
 188054000   250.83251     -419.28774     -335.28067     -419.26761      0              1448.1338      31.128         21.465467      33.104843      22119.897      911.60862      1622.3068      1810.4861      708.14144      93.264404     -131.06911    
 188056000   249.67295     -415.92521     -332.30648     -415.90273      0              4530.3189      31.128         21.465467      33.132648      22138.475      3671.1154      5932.8856      3986.9556     -687.7624      -380.66373     -840.36377    
 188058000   246.75844     -418.3617      -335.71909     -418.3289       0              4267.287       31.128         21.465467      33.201863      22184.723      3566.1753      6343.0644      2892.6211      456.41705     -1953.1272     -1951.8848    
 188060000   241.27503     -417.62458     -336.81843     -417.60043      0              3776.4189      31.128         21.465467      33.111227      22124.162      4309.6109      4036.7639      2982.8819      1578.1326      261.59792     -141.44685    
 188062000   246.84486     -416.75424     -334.08268     -416.73059      0              4497.2829      31.128         21.465467      33.021412      22064.15       4463.7889      4377.9699      4650.09        1397.4753      790.70605     -937.10953    
 188064000   243.62699     -418.23772     -336.64386     -418.21724      0              5456.8617      31.128         21.465467      33.080434      22103.587      2775.1216      8205.9799      5389.4835     -152.21535      154.42029      674.6178     
 188066000   241.63503     -415.50783     -334.58111     -415.48389      0              727.64679      31.128         21.465467      33.226184      22200.974     -828.65108      936.52221      2075.0692      479.89466      13.289687     -1104.2942    
 188068000   244.17797     -419.46137     -337.68298     -419.43631      0              6186.6134      31.128         21.465467      33.177272      22168.292      3997.3171      8388.2983      6174.2247      1046.542      -258.11299     -1899.4945    
 188070000   242.77122     -415.8371      -334.52985     -415.81249      0              2290.4487      31.128         21.465467      33.372077      22298.456      1767.8292      2309.7169      2793.8002      506.82291     -515.61788     -1218.4411    
 188072000   243.99306     -416.57374     -334.85728     -416.54426      0              4442.8014      31.128         21.465467      33.38056       22304.125      3758.3956      4417.1284      5152.88       -348.56286      332.00906     -288.25006    
 188074000   251.31112     -416.16848     -332.00111     -416.13955      0              2486.5479      31.128         21.465467      33.387641      22308.856      1137.2233      2843.2075      3479.213       823.42968     -219.06581     -705.51081    
 188076000   247.41832     -416.89775     -334.03413     -416.86917      0              3389.8217      31.128         21.465467      33.386268      22307.938      3176.5708      2424.957       4567.9374      379.90266      694.60768     -64.390647    
 188078000   240.96824     -418.92054     -338.21713     -418.90035      0              3276.5208      31.128         21.465467      33.160909      22157.358      3382.9583      2706.2953      3740.3088      1234.9936      720.15904     -317.61842    
 188080000   246.00695     -416.17243     -333.7815      -416.14745      0              1159.5588      31.128         21.465467      33.336795      22274.882      1496.0992      2669.6038     -687.0267       1586.7932     -639.74465     -1688.1077    
 188082000   250.94198     -420.78163     -336.73789     -420.75719      0              3395.3707      31.128         21.465467      33.348428      22282.655      2294.6724      5258.1408      2633.2989      922.65462      281.85147      17.559554    
 188084000   243.90966     -419.90036     -338.21184     -419.87755      0              3010.8175      31.128         21.465467      33.497606      22382.332      3667.3014      2655.3786      2709.7725      303.11275     -2426.0735      1100.7718    
 188086000   245.61461     -418.95285     -336.69332     -418.93127      0              1887.4644      31.128         21.465467      33.492896      22379.185      5837.0618      1157.2344     -1331.9032     -119.86125     -202.11264     -1007.5614    
 188088000   239.53478     -416.03563     -335.81232     -416.01196      0              2315.0571      31.128         21.465467      33.310577      22257.364      2326.6966      2622.3976      1996.077      -938.68319     -1023.5842     -616.23245    
 188090000   246.0614      -418.35211     -335.94294     -418.33246      0              2134.4973      31.128         21.465467      33.428942      22336.452      910.79531      3326.7167      2165.9798      272.94304     -79.96433       384.30561    
 188092000   237.55598     -416.37513     -336.81454     -416.34887      0              1446.0009      31.128         21.465467      33.357911      22288.991      2572.9738      1113.012       652.01684      376.12382     -1511.5772      250.27319    
 188094000   239.27404     -418.46646     -338.33046     -418.4445       0              4103.6606      31.128         21.465467      33.477916      22369.175      5215.5266      2176.1577      4919.2975      347.89632     -617.30652      1460.7887    
 188096000   252.28045     -418.55475     -334.06274     -418.52706      0              1502.3489      31.128         21.465467      33.403154      22319.221      1117.65        1835.1592      1554.2376     -867.4171       1081.0197      340.80935    
 188098000   247.46867     -420.75161     -337.87113     -420.73065      0              2404.7912      31.128         21.465467      33.448608      22349.592      248.08369      2644.0778      4322.2121     -177.05565      1157.5129      663.83974    
 188100000   237.54909     -416.4897      -336.93141     -416.44949      0              1778.5501      31.128         21.465467      33.530498      22404.309      2063.3788      375.01673      2897.2547      218.45541      57.869195      219.37681    
 188102000   243.69722     -415.65919     -334.04182     -415.6308       0              3142.3752      31.128         21.465467      33.413769      22326.314      2544.2092      2074.8745      4808.0417     -238.41663      456.35455      2337.7472    
 188104000   242.30071     -416.58809     -335.43842     -416.56729      0              2063.2659      31.128         21.465467      33.385763      22307.601      906.18191      3165.1464      2118.4693      1373.2259     -4.2291105     -109.4112     
 188106000   245.35334     -419.31477     -337.14274     -419.29258      0              5452.5449      31.128         21.465467      33.3776        22302.146      4001.002       7867.3034      4489.3295      389.09211     -407.10922      354.52481    
 188108000   251.25987     -416.39686     -332.24666     -416.37185      0              1021.0837      31.128         21.465467      33.326047      22267.7        1376.1698      1570.7175      116.36368      279.18153      1690.4967     -1821.5499    
 188110000   246.84564     -417.29602     -334.62419     -417.26668      0              4190.5272      31.128         21.465467      33.313776      22259.501      4488.1493      4021.4995      4061.9329      759.73404      133.15084      1931.7718    
[...]
 195540000   252.06432     -417.423       -333.00337     -417.41141      0              4633.6099      31.128         21.465467      33.403073      22319.167      5428.5736      4563.0306      3909.2254     -508.83191      339.46009     -638.8245     
 195542000   244.30174     -417.54224     -335.7224      -417.52208      0              4160.1521      31.128         21.465467      33.366439      22294.689      4502.2539      4579.5334      3398.6689     -502.56338     -409.79179      944.8527     
 195544000   247.7474      -417.89901     -334.92517     -417.87885      0              4405.0647      31.128         21.465467      33.323862      22266.24       5843.1763      4888.2336      2483.7842      78.260589     -404.24247     -818.43299    
 195546000   242.40711     -418.40232     -337.21702     -418.38149      0              4978.7562      31.128         21.465467      33.274783      22233.447      5687.0649      5865.7763      3383.4274      820.08013      2752.9524     -404.21044    
 195548000   244.65504     -418.25984     -336.32168     -418.24168      0              2167.06        31.128         21.465467      33.069902      22096.55       2572.4539      3563.8797      364.84633     -346.15763     -619.4947      -659.06869    
 195550000   243.13355     -417.84129     -336.4127      -417.82129      0              5379.5012      31.128         21.465467      33.290033      22243.636      5138.8593      6183.6158      4816.0285     -90.444999     -195.73491     -16.822654    
 195552000   236.57059     -416.37487     -337.14429     -416.35524      0              3969.6607      31.128         21.465467      33.294063      22246.329      3873.9047      3717.7622      4317.3152      1352.0305      455.35157     -1454.4148    
 195554000   242.85384     -418.03785     -336.70294     -418.01102      0              3642.9965      31.128         21.465467      33.47844       22369.526      3130.4434      4586.3466      3212.1996     -689.60562      311.14397     -23.536645    
 195556000   247.06905     -417.23371     -334.48706     -417.20845      0              847.976        31.128         21.465467      33.522029      22398.65      -819.53738      2866.2912      497.17417      37.509973      2667.9578     -1256.9326    
 195558000   244.06899     -416.57412     -334.83223     -416.54941      0              2304.9582      31.128         21.465467      33.348328      22282.587      1812.7882      2733.7525      2368.334      -1695.8817      1400.8896     -68.722607    
 195560000   244.0897      -417.17144     -335.42262     -417.15232      0              5450.5557      31.128         21.465467      33.381953      22305.055      5930.4037      5380.9568      5040.3064      521.76026      1007.4869     -784.40627    
 195562000   242.11619     -418.3511      -337.26323     -418.32788      0              3398.4012      31.128         21.465467      33.433012      22339.172      3721.7562      4284.6681      2188.7794     -4.0453274     -125.6837      -237.71068    
 195564000   243.35562     -420.52016     -339.01719     -420.5001       0              3219.8603      31.128         21.465467      33.434838      22340.392      3426.2272      3032.3601      3200.9936      989.443        447.63956     -615.02041    
 195566000   247.0062      -418.52996     -335.80436     -418.50586      0              5783.5322      31.128         21.465467      33.380981      22304.406      6193.3843      5083.9689      6073.2435      560.13844     -147.2881       1013.7843    
 195568000   251.32362     -416.84237     -332.67081     -416.82099      0              4593.9848      31.128         21.465467      33.361631      22291.476      3831.0836      4099.5213      5851.3494      1644.334       968.21607      1643.607     
 195570000   248.51736     -417.54581     -334.31411     -417.52386      0              4376.9872      31.128         21.465467      33.430993      22337.823      5823.5069      2472.7502      4834.7046      1592.1546      676.43238     -36.649979    
 195572000   241.52272     -420.69432     -339.80521     -420.67651      0              3365.8021      31.128         21.465467      33.360286      22290.578      4685.6309      1806.4903      3605.2852     -296.20786      714.13179      940.58925    
 195574000   241.10597     -418.02572     -337.27618     -418.0036       0              1268.5257      31.128         21.465467      33.609242      22456.925      526.92585     -239.8193       3518.4705     -133.72571      590.95988      1274.1777    
 195576000   237.83589     -414.3551      -334.70076     -414.32613      0              3812.544       31.128         21.465467      33.468461      22362.858      2286.7461      4181.8523      4969.0335      246.47528     -153.08836      632.80583    
 195578000   238.66608     -417.19687     -337.26449     -417.17647      0              2603.4769      31.128         21.465467      33.429467      22336.803      1109.5638      3073.1928      3627.6741     -1244.3647      795.92407     -41.928602    
 195580000   250.45836     -415.15787     -331.2761      -415.13136      0              3391.4105      31.128         21.465467      33.343221      22279.175      3795.4468      1807.0804      4571.7042     -914.63488      504.1226      -811.57862    
 195582000   248.27461     -416.31653     -333.16612     -416.29155      0              3477.6318      31.128         21.465467      33.26267       22225.353      1161.2113      5629.0427      3642.6413      600.56437     -18.412741     -257.74704    
 195584000   242.50351     -419.45612     -338.23854     -419.43476      0              3207.404       31.128         21.465467      33.336426      22274.635      2403.4417      3306.0822      3912.6881      343.27293      2010.6111      308.49783    
 195586000   250.59773     -418.41899     -334.49054     -418.39485      0              3241.4309      31.128         21.465467      33.104589      22119.727      3982.11        2864.7648      2877.4177     -2414.1891      716.42627      381.07128    
 195588000   247.29567     -420.71224     -337.8897      -420.68565      0              5091.7938      31.128         21.465467      33.335491      22274.01       4193.5407      5298.9195      5782.9213      546.21359      960.28848     -347.5581     
 195590000   244.04564     -418.83913     -337.10507     -418.81834      0              4464.9346      31.128         21.465467      33.229412      22203.131      3320.5011      4244.6665      5829.6363     -710.50706      323.5298       490.02878    
 195592000   247.31112     -419.75443     -336.92671     -419.73452      0              3429.5042      31.128         21.465467      33.411888      22325.057      4657.415       3447.218       2183.8795     -294.60634      49.904424     -438.8513     
 195594000   245.77464     -416.79018     -334.47705     -416.76508      0              3550.5479      31.128         21.465467      33.248279      22215.737      2484.8719      4306.4867      3860.2852     -826.49891      1900.006      -541.38518    
 195596000   246.87187     -414.85448     -332.17388     -414.83036      0              2595.7229      31.128         21.465467      33.252896      22218.822      450.88838      5963.2454      1373.0348      68.10683       1055.7297     -490.65203    
 195598000   245.7793      -417.89943     -335.58474     -417.87891      0              3678.7168      31.128         21.465467      33.243628      22212.63       1124.2119      4119.5348      5792.4038      2613.4244     -749.66532      2319.3302    
 195600000   239.07175     -417.21121     -337.14296     -417.18405      0              2771.1637      31.128         21.465467      33.472505      22365.56       3590.6094      4646.7244      76.157339     -440.25477      945.9334       661.28414    
 195602000   252.4456      -416.35328     -331.80596     -416.3279       0              2107.0055      31.128         21.465467      33.555984      22421.339      2200.0061      1720.3944      2400.6158      279.48125     -1621.9215     -242.36593    
 195604000   248.08486     -415.5199      -332.43304     -415.49526      0              1176.697       31.128         21.465467      33.733936      22540.242     -478.5245       2790.1862      1218.4292     -1590.7013      202.40698      588.04589    
 195606000   241.60054     -419.94742     -339.03225     -419.92344      0              2181.6455      31.128         21.465467      33.379131      22303.17       255.80416      3076.4406      3212.6918     -813.07493     -259.92223      1595.2507    
 195608000   242.48256     -416.81031     -335.59974     -416.78949      0              2813.5789      31.128         21.465467      33.401467      22318.094      974.42795      2126.3493      5339.9594      1943.922      -300.97564     -450.85902    
 195610000   242.54489     -415.11827     -333.88683     -415.09036      0              5650.4479      31.128         21.465467      33.424932      22333.772      7009.7483      5245.4085      4696.1868     -2100.5366     -1258.0413     -543.09266    
 195612000   251.12409     -418.8379      -334.73317     -418.81633      0              4718.1264      31.128         21.465467      33.298664      22249.403      5202.9665      5490.8994      3460.5132     -464.39163      360.87228     -1530.4399    
 195614000   250.80544     -415.14607     -331.14806     -415.12373      0              4797.0736      31.128         21.465467      33.188721      22175.942      3491.2153      6860.677       4039.3285      189.88462      186.23938     -1568.5029    
 195616000   244.83221     -416.51165     -334.51415     -416.4896       0              4631.5091      31.128         21.465467      33.302645      22252.064      5631.0729      3339.5273      4923.927       1133.0719     -42.154304      1508.718     
 195618000   243.22005     -419.35511     -337.89754     -419.34262      0              4053.8689      31.128         21.465467      33.129816      22136.583      5670.8413      2659.3817      3831.3837      203.39418     -952.02198     -1608.3742    
 195620000   249.63375     -416.2187      -332.61311     -416.20687      0              4317.0274      31.128         21.465467      33.101659      22117.769      3849.1809      4425.7031      4676.1983      2029.1532     -405.53435      244.79129    
 195622000   243.61427     -417.76918     -336.17958     -417.75518      0              2802.6072      31.128         21.465467      33.036607      22074.303      3562.1062      708.79887      4136.9167     -1432.0864      404.23182      2238.2216    
 195624000   243.602       -415.27352     -333.68804     -415.25177      0              4736.0641      31.128         21.465467      33.281407      22237.872      3742.3058      4520.9735      5944.9131      553.49289      1963.3607      179.54673    
 195626000   243.76127     -421.53498     -339.89616     -421.51565      0              2368.8856      31.128         21.465467      33.299794      22250.158      2362.6719      2515.1808      2228.8043      680.72163      797.89492     -670.15717    
 195628000   248.42556     -418.68843     -335.48747     -418.66544      0              3592.2096      31.128         21.465467      33.268249      22229.081      1872.3095      5246.8663      3657.4529      823.58919      1568.0524      275.40358    
 195630000   242.5871      -416.02777     -334.78219     -416.00164      0              4108.8954      31.128         21.465467      33.330467      22270.654      2936.2143      5044.0375      4346.4345      1114.9127      521.89586     -771.47565    
 195632000   243.49449     -417.8133      -336.26382     -417.78929      0              5326.6854      31.128         21.465467      33.22494       22200.143      6789.3463      4864.6478      4326.0622      86.993525      182.47348     -941.50091    
 195634000   246.94038     -421.22002     -338.51647     -421.20297      0              4270.7527      31.128         21.465467      33.173902      22166.04       3160.2899      5741.4613      3910.5069      158.59126      476.60882     -843.07479    
 195636000   246.25373     -418.20102     -335.72744     -418.18116      0              3349.2525      31.128         21.465467      33.186649      22174.558      2944.0388      2118.1342      4985.5847      1044.0446      1850.2697     -272.58858    
 195638000   247.00961     -418.89014     -336.1634      -418.86714      0              4061.5047      31.128         21.465467      33.200403      22183.748      5521.4273      3246.2834      3416.8034     -135.22829     -733.47305      178.43251    
 195640000   247.71846     -418.55735     -335.59321     -418.54239      0              2783.5858      31.128         21.465467      33.264817      22226.787      3728.6518      1130.6504      3491.455       217.03498      975.20799      559.55266    
 195642000   243.57097     -417.64238     -336.06729     -417.62728      0              3635.7522      31.128         21.465467      33.243413      22212.486      5017.96        3471.8998      2417.3968      444.60094     -1027.2465      653.62403    
 195644000   245.92754     -419.11537     -336.75103     -419.10491      0              4340.0744      31.128         21.465467      33.216895      22194.767      3605.4826      3116.3996      6298.341       262.55322      918.15658      669.64385    
 195646000   242.11975     -419.01246     -337.9234      -418.99527      0              2964.4819      31.128         21.465467      33.361001      22291.055      1153.6406      2542.9099      5196.8953      735.14261     -835.84723      69.044625    
 195648000   245.30299     -419.87667     -337.7215      -419.85661      0              3414.8788      31.128         21.465467      33.344562      22280.071      2394.4779      4533.6959      3316.4624      535.95497     -1030.1301     -471.97596    
 195650000   251.14683     -419.19284     -335.08049     -419.17364      0              3559.9936      31.128         21.465467      33.447857      22349.09       2699.7259      3764.5873      4215.6676     -132.3047       408.93888      264.0401     
 195652000   243.79638     -419.69548     -338.04489     -419.67374      0              3119.5617      31.128         21.465467      33.348541      22282.73       2996.6009      3279.2005      3082.8837      1885.8581     -791.11147      1375.5244    
 195654000   244.35731     -420.48536     -338.64691     -420.45987      0              2017.109       31.128         21.465467      33.38559       22307.485      2892.3144      644.17365      2514.8391     -126.69414     -596.38486     -177.25017    
 195656000   233.90513     -422.31985     -343.98197     -422.30776      0              2906.0066      31.128         21.465467      33.547699      22415.803      3261.7169      1985.5209      3470.782       572.86983     -218.62457     -356.33416    
 195658000   239.75063     -421.45063     -341.15502     -421.43177      0              2938.2717      31.128         21.465467      33.522235      22398.788      1744.8017      4262.9664      2807.0471     -802.96335      388.89045     -1028.5161    
 195660000   242.68424     -417.56237     -336.28426     -417.54273      0              2394.4411      31.128         21.465467      33.519516      22396.972      2269.179       3405.798       1508.3463      499.22401     -692.7925      -388.59315    
 195662000   253.60897     -417.45287     -332.51591     -417.42998      0              2689.3791      31.128         21.465467      33.605048      22454.122      3438.8799      1193.3821      3435.8752      747.3159       380.97406     -1427.0787    
 195664000   249.41503     -419.16192     -335.62957     -419.1418       0              3549.3084      31.128         21.465467      33.390628      22310.852      1935.8025      4438.1085      4274.0141      455.41761      1339.7375      146.52694    
 195666000   247.06834     -417.64185     -334.89544     -417.62167      0              5068.8618      31.128         21.465467      33.39515       22313.873      4068.4025      6146.0733      4992.1097      657.94704     -992.33987      35.572908    
 195668000   237.79406     -418.8809      -339.24057     -418.86195      0              3609.1245      31.128         21.465467      33.527882      22402.562      4586.6714      2076.3156      4164.3863     -203.38803      32.594836      126.45304    
 195670000   242.41977     -419.83357     -338.64403     -419.82626      0              3809.5222      31.128         21.465467      33.41164       22324.891      2288.5423      5656.8727      3483.1516     -516.64524     -265.1023       845.33912    
 195672000   243.29812     -420.31722     -338.83351     -420.30029      0              3236.8983      31.128         21.465467      33.280634      22237.356      2068.0243      4320.9765      3321.6941     -1335.7213      445.13335      23.760063    
 195674000   247.37266     -418.60362     -335.7553      -418.58197      0              3938.4664      31.128         21.465467      33.303437      22252.592      3517.723       4259.0597      4038.6165      860.69243      136.01691      308.66491    
 195676000   237.49165     -419.10362     -339.56457     -419.08879      0              3591.6791      31.128         21.465467      33.289132      22243.034      3516.5311      4705.5876      2552.9186      1105.5086      918.71738     -1157.5708    
 195678000   251.05708     -418.40447     -334.32218     -418.38494      0              5272.3446      31.128         21.465467      33.204686      22186.609      4944.3949      3877.5074      6995.1314      1714.4714      494.15296      1342.8698    
 195680000   240.74958     -419.38617     -338.756       -419.36939      0              1808.9618      31.128         21.465467      33.416139      22327.897      2263.5011      1685.6958      1477.6884      997.30345      651.01375      448.44583    
 195682000   241.02722     -416.64409     -335.92093     -416.62393      0              3159.2884      31.128         21.465467      33.441656      22344.947      2855.41        2245.146       4377.309      -475.51449      1257.7556      467.55782    
WARNING: Wall time limit reached (../timer.cpp:193)
Loop time of 85806.5 on 4 procs for 8140000 steps with 2592 atoms

Performance: 4.098 ns/day, 5.856 hours/ns, 94.865 timesteps/s
1549.8% CPU use with 4 MPI tasks x no OpenMP threads

MPI task timing breakdown:
Section |  min time  |  avg time  |  max time  |%varavg| %total
---------------------------------------------------------------
Pair    | 22629      | 22855      | 23086      | 119.7 | 26.64
Bond    | 0.76031    | 0.80222    | 0.87489    |   5.1 |  0.00
Neigh   | 682.61     | 691.03     | 700.06     |  29.9 |  0.81
Comm    | 2597.6     | 2830.5     | 3058.5     | 343.7 |  3.30
Output  | 32.192     | 32.198     | 32.216     |   0.2 |  0.04
Modify  | 59367      | 59375      | 59381      |   2.4 | 69.20
Other   |            | 22.25      |            |       |  0.03

Nlocal:            648 ave         658 max         638 min
Histogram: 1 1 0 0 0 0 0 0 1 1
Nghost:         4162.5 ave        4178 max        4149 min
Histogram: 1 1 0 0 0 0 0 1 0 1
Neighs:              0 ave           0 max           0 min
Histogram: 4 0 0 0 0 0 0 0 0 0
FullNghs:       161022 ave      166581 max      156003 min
Histogram: 2 0 0 0 0 0 0 0 1 1

Total # of neighbors = 644088
Ave neighs/atom = 248.49074
Ave special neighs/atom = 0
Neighbor list builds = 162800
Dangerous builds not checked
unfix 3
unfix 1
unfix 2


# Finalize simulation
write_restart	restart.lmp.${pid}
write_restart	restart.lmp.0
System init for write_restart ...
Generated 0 of 1 mixed pair_coeff terms from geometric mixing rule
write_data	data.final.${pid} nocoeff
write_data	data.final.0 nocoeff
System init for write_data ...
Generated 0 of 1 mixed pair_coeff terms from geometric mixing rule
Total wall time: 23:50:23
