LAMMPS (23 Jun 2022)
include procedure.lmp
echo both
include		in.partitions
variable        pid world 0
include		in.temp
variable	temperature equal 245
variable        tempDamp equal 0.100 # this is 0.1 ps
include		in.pressure
variable        pressure equal 3039.75
variable        pressureDamp equal 1.0 #this is 1ps

variable	barostat string	   tri
variable	direction string   z
variable	direction_x_bool equal 0
variable	direction_y_bool equal 0
variable	direction_z_bool equal 1

include		in.seed
variable        seed world 745823

units           metal
atom_style	full
box tilt large
read_restart 	restart.lmp.${pid}
read_restart 	restart.lmp.0
Reading restart file ...
  restart file = 23 Jun 2022, LAMMPS = 23 Jun 2022
  restoring atom style full from restart
  triclinic box = (0 0 -0.76567587) to (31.128 21.465467 32.470743) with tilt (-9.18238 0.78337775 -11.160013)
WARNING: Triclinic box skew is large (../domain.cpp:224)
  2 by 1 by 2 MPI processor grid
Summary of lammps deepmd module ...
  >>> Info of deepmd-kit:
  installed to:       /u/sigbjobo/software/DEEPMD_FROM_SOURCE/deepmd-kit/install
  source:             v2.1.3
  source branch:       master
  source commit:      5a32c49
  source commit at:   2022-07-01 09:52:58 +0800
  surpport model ver.:1.1 
  build float prec:   double
  build with tf inc:  /u/sigbjobo/software/DEEPMD_FROM_SOURCE/tensorflow/install/include;/u/sigbjobo/software/DEEPMD_FROM_SOURCE/tensorflow/install/include
  build with tf lib:  /u/sigbjobo/software/DEEPMD_FROM_SOURCE/tensorflow/install/lib/libtensorflow_cc.so;/u/sigbjobo/software/DEEPMD_FROM_SOURCE/tensorflow/install/lib/libtensorflow_framework.so
  set tf intra_op_parallelism_threads: 0
  set tf inter_op_parallelism_threads: 0
  >>> Info of lammps module:
  use deepmd-kit at:  /u/sigbjobo/software/DEEPMD_FROM_SOURCE/deepmd-kit/install
  source:             v2.1.3
  source branch:      master
  source commit:      5a32c49
  source commit at:   2022-07-01 09:52:58 +0800
  build float prec:   double
  build with tf inc:  /u/sigbjobo/software/DEEPMD_FROM_SOURCE/tensorflow/install/include;/u/sigbjobo/software/DEEPMD_FROM_SOURCE/tensorflow/install/include
  build with tf lib:  /u/sigbjobo/software/DEEPMD_FROM_SOURCE/tensorflow/install/lib/libtensorflow_cc.so;/u/sigbjobo/software/DEEPMD_FROM_SOURCE/tensorflow/install/lib/libtensorflow_framework.so
  restoring pair style deepmd from restart
  2592 atoms
Finding 1-2 1-3 1-4 neighbors ...
  special bond factors lj:    0        0        0       
  special bond factors coul:  0        0        0       
     0 = max # of 1-2 neighbors
     0 = max # of 1-3 neighbors
     0 = max # of 1-4 neighbors
     1 = max # of special neighbors
  special bonds CPU = 0.000 seconds
  read_restart CPU = 0.121 seconds
include 	in.setup
variable	out_freq equal 2000
variable	out_freq2 equal 2000

timestep        0.0005

neigh_modify    delay 7 every 1

include         in.deepmd
# This is deepMD model

# create groups ###
#group ox type 2
#group hy type 1

mass 2 15.999
mass 1 1.008

pair_style      deepmd ../graph.pb
pair_coeff      * *

bond_style      none
angle_style     none
dihedral_style  none
improper_style  none
neigh_modify exclude none


neighbor        2.0 bin
neigh_modify    every 50 delay 0 check no

thermo          ${out_freq}
thermo          2000
thermo_style 	custom step temp pe etotal epair emol press lx ly lz vol pxx pyy pzz pxy pxz pyz

restart 	${out_freq} restart.lmp.${pid} restart2.lmp.${pid}
restart 	2000 restart.lmp.${pid} restart2.lmp.${pid}
restart 	2000 restart.lmp.0 restart2.lmp.${pid}
restart 	2000 restart.lmp.0 restart2.lmp.0


timer           timeout 23:50:00 every 1000
New timer settings: style=normal  mode=nosync  timeout=23:50:00


# Set number of time steps
variable 	nsteps_wall		equal	 6000000
variable 	nsteps_enhanced_coex    equal	60000000

variable     nsteps_enhanced_coex_upto equal (${nsteps_wall}+${nsteps_enhanced_coex})
variable     nsteps_enhanced_coex_upto equal (6000000+${nsteps_enhanced_coex})
variable     nsteps_enhanced_coex_upto equal (6000000+60000000)


# Set temperature for first step
if "$(step) < 1  " then    "velocity 	all create ${temperature} ${seed} dist gaussian"


# Always run thermo and barostat


######################################
# Run simulation with wall potential #
######################################
if " $(step) < ${nsteps_wall} " then    "fix             3 all plumed plumedfile plumed.equil.dat outfile plumed.equil.out"   "fix             1 all nph ${direction} ${pressure} ${pressure} ${pressureDamp}"   "fix             2 all temp/csvr ${temperature} ${temperature} ${tempDamp} ${seed}"   "run             ${nsteps_wall} upto"
if " $(step) == ${nsteps_wall} " then    "unfix 3"   "unfix 1"   "unfix 2"


############################
# Run enhanced coesistence #
############################
if "$(step) == ${nsteps_wall}" then    "fix             3 all plumed plumedfile plumed.start.dat outfile plumed.out" else    "fix             3 all plumed plumedfile plumed.dat outfile plumed.out"
fix             3 all plumed plumedfile plumed.dat outfile plumed.out

if "$(step) < ${nsteps_enhanced_coex_upto} && $(step) >= ${nsteps_wall} " then    "include         in.dump"    "fix             1 all nph ${direction} ${pressure} ${pressure} ${pressureDamp}"   "fix             2 all temp/csvr ${temperature} ${temperature} ${tempDamp} ${seed}"   "run             ${nsteps_enhanced_coex_upto} upto"    "unfix 3"   "unfix 1"   "unfix 2"
include         in.dump
dump            myDump all atom ${out_freq2} dump.water.${pid}
dump            myDump all atom 2000 dump.water.${pid}
dump            myDump all atom 2000 dump.water.0
dump            myDump2 all dcd ${out_freq2} dump.${pid}.dcd
dump            myDump2 all dcd 2000 dump.${pid}.dcd
dump            myDump2 all dcd 2000 dump.0.dcd
dump_modify     myDump append yes
dump_modify     myDump2 append yes

fix             1 all nph ${direction} ${pressure} ${pressure} ${pressureDamp}
fix             1 all nph z ${pressure} ${pressure} ${pressureDamp}
fix             1 all nph z 3039.75 ${pressure} ${pressureDamp}
fix             1 all nph z 3039.75 3039.75 ${pressureDamp}
fix             1 all nph z 3039.75 3039.75 1
Resetting global fix info from restart file:
  fix style: nph, fix ID: 1
fix             2 all temp/csvr ${temperature} ${temperature} ${tempDamp} ${seed}
fix             2 all temp/csvr 245 ${temperature} ${tempDamp} ${seed}
fix             2 all temp/csvr 245 245 ${tempDamp} ${seed}
fix             2 all temp/csvr 245 245 0.1 ${seed}
fix             2 all temp/csvr 245 245 0.1 745823
Resetting global fix info from restart file:
  fix style: temp/csvr, fix ID: 2
run             ${nsteps_enhanced_coex_upto} upto
run             66000000 upto

CITE-CITE-CITE-CITE-CITE-CITE-CITE-CITE-CITE-CITE-CITE-CITE-CITE

Your simulation uses code contributions which should be cited:

- USER-DEEPMD package:

@article{Wang_ComputPhysCommun_2018_v228_p178,
  author = {Wang, Han and Zhang, Linfeng and Han, Jiequn and E, Weinan},
  doi = {10.1016/j.cpc.2018.03.016},
  url = {https://doi.org/10.1016/j.cpc.2018.03.016},
  year = 2018,
  month = {jul},
  publisher = {Elsevier {BV}},
  volume = 228,
  journal = {Comput. Phys. Commun.},
  title = {{DeePMD-kit: A deep learning package for many-body potential energy representation and molecular dynamics}},
  pages = {178--184}
}

CITE-CITE-CITE-CITE-CITE-CITE-CITE-CITE-CITE-CITE-CITE-CITE-CITE

Generated 0 of 1 mixed pair_coeff terms from geometric mixing rule
All restart file global fix info was re-assigned
Neighbor list info ...
  update every 50 steps, delay 0 steps, check no
  max neighbors/atom: 2000, page size: 100000
  master list distance cutoff = 8
  ghost atom cutoff = 8
  binsize = 4, bins = 11 9 9
  1 neighbor lists, perpetual/occasional/extra = 1 0 0
  (1) pair deepmd, perpetual
      attributes: full, newton on
      pair build: full/bin
      stencil: full/bin/3d
      bin: standard
Per MPI rank memory allocation (min/avg/max) = 7.305 | 7.306 | 7.306 Mbytes
   Step          Temp          PotEng         TotEng         E_pair         E_mol          Press            Lx             Ly             Lz           Volume          Pxx            Pyy            Pzz            Pxy            Pxz            Pyz      
  24990000   247.66657     -417.97299     -335.02623     -417.97299      0              4068.2438      31.128         21.465467      33.236419      22207.812      4231.3507      2822.7364      5150.6443     -971.04038      302.54001     -703.64599    
  24992000   250.22476     -415.36167     -331.55814     -415.30335      0              2351.7364      31.128         21.465467      33.169652      22163.201      1008.0992      1345.241       4701.8689     -2162.8281      350.17131     -1017.2309    
  24994000   249.80091     -417.31014     -333.64856     -417.27196      0              4194.2487      31.128         21.465467      33.272499      22231.92       3580.1321      3958.4087      5044.2053      333.14838     -269.0261      -61.615069    
  24996000   250.24209     -415.6506      -331.84126     -415.61298      0              3983.3836      31.128         21.465467      33.294592      22246.682      2032.6937      4364.0044      5553.4527     -766.11463     -1594.5518     -391.06407    
  24998000   241.70274     -419.35941     -338.41001     -419.31261      0              3176.1721      31.128         21.465467      33.274211      22233.064      3097.5444      2443.5349      3987.437      -1570.5113     -423.71806     -1329.8029    
  25000000   246.26974     -416.65699     -334.17804     -416.60913      0              1926.9295      31.128         21.465467      33.313892      22259.578      1896.9268      1927.191       1956.6706     -189.78854      141.09653     -238.82825    
  25002000   240.60899     -416.86876     -336.28567     -416.80425      0              3168.2195      31.128         21.465467      33.399175      22316.562      2442.2633      4220.7165      2841.6789     -654.56327      506.4012      -283.74754    
  25004000   251.38603     -415.75239     -331.55993     -415.688        0              4866.7682      31.128         21.465467      33.498952      22383.231      3923.0919      5599.1749      5078.0376      945.52957      719.51394     -1996.6526    
  25006000   240.25117     -416.27976     -335.81651     -416.22325      0              1755.7207      31.128         21.465467      33.445116      22347.259      3553.3446     -736.53975      2450.3572     -426.93722      1191.7794      685.08563    
  25008000   244.93734     -417.83633     -335.80362     -417.78868      0              4297.8049      31.128         21.465467      33.294345      22246.517      2815.4587      5597.1095      4480.8463     -228.77231     -1322.978      -628.51714    
  25010000   242.12555     -416.90331     -335.81231     -416.84084      0              4384.2059      31.128         21.465467      33.087173      22108.09       4954.6774      5761.4689      2436.4716      1137.9801      1644.6137     -1800.8478    
  25012000   245.8856      -416.38668     -334.03639     -416.32248      0              4041.1398      31.128         21.465467      33.296116      22247.701      3421.0957      5286.9245      3415.3992     -1680.0801      804.46578     -769.49053    
  25014000   242.06951     -416.44883     -335.3766      -416.38461      0              3831.9857      31.128         21.465467      33.337121      22275.1        3411.5542      3863.7375      4220.6654     -2306.0746     -1518.5872      308.80595    
  25016000   234.8642      -414.22531     -335.56623     -414.16117      0              3641.0463      31.128         21.465467      33.214035      22192.856      3993.9027      1826.4338      5102.8023      6.6997438      514.8386       540.70162    
  25018000   249.37538     -416.52994     -333.01087     -416.46637      0              3787.2023      31.128         21.465467      33.488576      22376.298      4791.8087      5788.9259      780.87229     -11.669351     -1128.0807      850.1666     
  25020000   244.42832     -417.75408     -335.89185     -417.70294      0              2917.9476      31.128         21.465467      33.590177      22444.186      1394.3995      4476.4374      2883.006       963.69776     -241.35697     -135.04246    
  25022000   252.05601     -416.42808     -332.01124     -416.36553      0              3949.6048      31.128         21.465467      33.418448      22329.44       2909.0949      4609.2912      4330.4283      530.33833      197.1071      -1183.81      
  25024000   246.37097     -418.13506     -335.62221     -418.07772      0              2100.6413      31.128         21.465467      33.484172      22373.356      2194.6087      4019.9955      87.319659      740.62247     -513.13675      190.99754    
  25026000   246.91345     -417.56221     -334.86768     -417.4982       0              1882.213       31.128         21.465467      33.390833      22310.989      2850.7816      1908.8069      887.05046     -97.905299      1404.5304      1474.9121    
  25028000   241.97311     -420.10595     -339.066       -420.04151      0              4565.2119      31.128         21.465467      33.378747      22302.913      2624.5324      5819.0404      5252.063       1039.806      -1024.8741      45.521597    
  25030000   241.88318     -416.38794     -335.37811     -416.32295      0              4260.1966      31.128         21.465467      33.38429       22306.617      5567.147       4846.145       2367.2977      23.397992     -541.17355     -440.94237    
  25032000   247.6149      -421.96325     -339.03379     -421.90666      0              2593.0069      31.128         21.465467      33.39163       22311.521      2058.1382      2632.6243      3088.258      -448.61022      1602.0348      508.9495     
  25034000   249.92676     -419.09598     -335.39225     -419.03219      0              3537.9651      31.128         21.465467      33.266333      22227.801      4525.4493      2988.1222      3100.3238      864.35538     -187.44927      2526.2302    
  25036000   243.4424      -416.92738     -335.39534     -416.86356      0              4529.0131      31.128         21.465467      33.170295      22163.63       1642.474       7289.0562      4655.5091      799.59626      928.80796     -355.49469    
  25038000   244.32854     -418.4176      -336.58879     -418.35392      0              4249.1859      31.128         21.465467      33.200211      22183.619      4954.4458      3644.0331      4149.0789      1539.6754      373.49261      542.99226    
  25040000   246.05142     -419.91081     -337.50498     -419.8486       0              5688.592       31.128         21.465467      33.049411      22082.858      4086.1227      7983.4615      4996.1918     -742.42867     -680.66091     -217.70908    
  25042000   240.69219     -418.14602     -337.53507     -418.08242      0              5562.3367      31.128         21.465467      33.338243      22275.849      5282.3127      5689.5641      5715.1332     -284.79746      959.52026     -656.77772    
  25044000   245.47883     -417.32039     -335.10633     -417.25228      0              3523.1128      31.128         21.465467      33.190994      22177.461      3258.5658      5131.9992      2178.7733      1001.0184     -295.74297     -2259.3476    
  25046000   252.86844     -419.19268     -334.50374     -419.12515      0              3634.1174      31.128         21.465467      33.212389      22191.756      2262.1565      6500.7144      2139.4814      531.79764      678.88343      725.09035    
  25048000   249.19446     -419.36597     -335.9075      -419.30245      0              3571.9705      31.128         21.465467      33.26691       22228.186      2759.2091      3688.5999      4268.1024      699.05513      669.71563      955.41144    
  25050000   238.28726     -417.32097     -337.51546     -417.25744      0              1300.3349      31.128         21.465467      33.406682      22321.578     -53.094052      3575.2149      378.88393     -321.55906      1457.091      -1775.3863    
  25052000   244.83779     -419.83829     -337.83892     -419.77492      0              4398.156       31.128         21.465467      33.364382      22293.314      3339.1567      4156.6826      5698.6287     -2453.2844      640.4473      -937.06139    
  25054000   243.45349     -418.13633     -336.60058     -418.06708      0              4056.8667      31.128         21.465467      33.343931      22279.65       3850.7841      5704.9038      2614.9123     -1510.4449     -541.62986     -1399.0886    
  25056000   245.54554     -418.48001     -336.24361     -418.412        0              2990.633       31.128         21.465467      33.391772      22311.616      4145.1221      3769.7204      1057.0566     -1713.1255      589.27837     -1293.7217    
  25058000   251.74382     -416.55187     -332.23958     -416.48279      0              2480.869       31.128         21.465467      33.497199      22382.06       2880.0988      3973.9176      588.59048     -1077.7253     -1157.7152      736.34522    
  25060000   242.04608     -417.78336     -336.71897     -417.7118       0              2633.0656      31.128         21.465467      33.398546      22316.142      2553.0434      3513.6765      1832.4769     -692.59235      158.23528      116.82081    
  25062000   241.76709     -414.66469     -333.69374     -414.59705      0              3838.5162      31.128         21.465467      33.441194      22344.638      4566.1435      3341.3136      3608.0915     -794.22244     -1422.105       1301.5703    
  25064000   241.82439     -416.17007     -335.17993     -416.10684      0              4579.2893      31.128         21.465467      33.382816      22305.632      5114.0411      5573.865       3049.9619      458.69989      860.91381     -1315.8245    
  25066000   247.2568      -417.54793     -334.7384      -417.49309      0              3573.498       31.128         21.465467      33.461072      22357.921      5370.8336      2385.9062      2963.7542      512.48565     -312.40864      560.24563    
  25068000   245.97429     -416.8275      -334.4475      -416.75834      0              2209.7852      31.128         21.465467      33.452922      22352.475      2382.4979      3319.9554      926.90247      1199.0221      135.76829      894.50419    
  25070000   251.64188     -415.40842     -331.13028     -415.33951      0              2481.0358      31.128         21.465467      33.330072      22270.39       2211.412       311.4453       4920.2499     -924.07473     -325.36957      68.165566    
  25072000   240.80647     -415.76725     -335.11803     -415.70402      0              1841.8596      31.128         21.465467      33.420607      22330.883      2363.5899      1111.8897      2050.0992     -1331.3834     -1579.882       451.82655    
  25074000   237.40427     -416.06407     -336.55429     -416.00995      0              3384.9373      31.128         21.465467      33.394016      22313.115      2983.6229      2398.2691      4772.9198      1128.3402     -1120.1789      229.93947    
  25076000   247.78636     -414.80698     -331.8201      -414.75801      0              1327.9806      31.128         21.465467      33.422175      22331.931      368.31398      1692.8764      1922.7513     -17.18538       539.63067     -150.08752    
  25078000   246.84819     -417.03331     -334.36063     -416.97011      0              2547.5696      31.128         21.465467      33.323146      22265.762      2370.7521      2408.6853      2863.2714     -384.93123     -748.91952     -357.77724    
  25080000   243.57349     -418.13879     -336.56285     -418.07753      0              4950.4407      31.128         21.465467      33.255482      22220.55       4388.0962      5514.7982      4948.4277      213.02492      816.44289      1019.4602    
  25082000   241.11285     -414.68281     -333.93097     -414.62133      0              3984.6464      31.128         21.465467      33.316255      22261.157      4780.5257      4036.5994      3136.814       411.64406      1224.2792     -1031.1059    
  25084000   244.93343     -418.67893     -336.64753     -418.61534      0              2224.2579      31.128         21.465467      33.38501       22307.098      1520.7522      3170.1797      1981.8417     -1288.3454     -1358.0769     -277.7765     
  25086000   248.84992     -415.7414      -332.39832     -415.67844      0              3983.7701      31.128         21.465467      33.331229      22271.162      3948.9069      4141.8469      3860.5564      125.28955      382.77709     -1357.8412    
  25088000   250.97738     -414.74494     -330.68934     -414.67582      0              1715.7304      31.128         21.465467      33.63184       22472.024      876.75426      3364.7847      905.65225      1177.9803      192.07267     -264.25684    
  25090000   243.24815     -416.9217      -335.45473     -416.85306      0              348.71579      31.128         21.465467      33.577115      22435.458      661.67012      633.56124     -249.08399      532.30692      2286.8211     -402.23259    
  25092000   245.1667      -413.62051     -331.51098     -413.55199      0              1998.7438      31.128         21.465467      33.538977      22409.975      1544.445       2779.4489      1672.3375      1249.2287      639.74815     -1465.2391    
  25094000   253.95483     -416.34269     -331.2899      -416.27862      0              2830.2472      31.128         21.465467      33.471145      22364.651      3093.7141      2910.8321      2486.1954      1072.5143     -405.65871     -480.55861    
  25096000   246.31273     -416.54142     -334.04808     -416.47851      0              3019.4238      31.128         21.465467      33.273085      22232.312      3289.4292      4885.7421      883.10001      1349.1362      565.71733      224.78407    
  25098000   248.58138     -415.76632     -332.51318     -415.70354      0              2378.7556      31.128         21.465467      33.391747      22311.599      3361.6819      1686.3206      2088.2644      644.35699      1411.4762      186.51164    
  25100000   242.67213     -415.32088     -334.04682     -415.25822      0              2826.2366      31.128         21.465467      33.420656      22330.915      4199.3217      1800.2466      2479.1414     -854.59549     -1068.1499     -1209.1367    
  25102000   244.49788     -417.00391     -335.11838     -416.95147      0              3968.8327      31.128         21.465467      33.257084      22221.62       3713.5384      5820.4068      2372.5528      728.96693      155.18756      634.56249    
  25104000   245.53055     -416.11479     -333.88341     -416.04376      0              4854.0544      31.128         21.465467      33.456702      22355.001      4826.6176      3719.452       6016.0937     -295.07776      147.51953      1943.6257    
  25106000   243.78331     -418.56076     -336.91456     -418.49696      0              2847.5304      31.128         21.465467      33.595166      22447.519      3716.263       1565.9767      3260.3514     -977.43886      949.25462      4.2145342    
  25108000   243.70863     -418.38573     -336.76453     -418.31852      0              2597.334       31.128         21.465467      33.67937       22503.783      3990.1346      2765.3927      1036.4746     -30.343413      491.91128     -1354.2171    
  25110000   247.78165     -416.28357     -333.29827     -416.21671      0              2957.7192      31.128         21.465467      33.780066      22571.065      1152.0133      3701.5214      4019.623      -270.15513     -570.94419      483.45744    
  25112000   247.16754     -415.82115     -333.04152     -415.74966      0              1372.0168      31.128         21.465467      33.775995      22568.345      2043.2968      1561.7868      510.96677     -909.41068     -743.97441      781.89605    
  25114000   240.62226     -414.50856     -333.92103     -414.44267      0              3218.1855      31.128         21.465467      33.587373      22442.312      3501.1324      2600.4301      3552.994      -766.36736     -848.36223      274.28749    
  25116000   243.44243     -417.31374     -335.78169     -417.24769      0              3699.3725      31.128         21.465467      33.487296      22375.443      2485.6557      3759.7063      4852.7555     -955.13025     -745.95195     -988.04357    
  25118000   251.27119     -414.23865     -330.08465     -414.16822      0              346.2178       31.128         21.465467      33.729755      22537.449      421.46354      242.7917       374.39815     -1281.776       145.45909      1064.0024    
  25120000   245.00051     -419.93726     -337.8834      -419.87111      0              3707.3434      31.128         21.465467      33.65769       22489.296      2293.6502      4050.7321      4777.6479      541.31691      289.03771     -508.14292    
  25122000   246.76075     -421.54057     -338.89718     -421.47252      0              2958.0316      31.128         21.465467      33.482004      22371.907      2542.6499      4117.4335      2214.0113      721.48232     -1733.2963     -2337.0995    
  25124000   240.75929     -418.3368      -337.70337     -418.27522      0              968.014        31.128         21.465467      33.636663      22475.246      1036.9895      435.59784      1431.4546      753.15201     -1922.5553     -1343.4105    
  25126000   238.12122     -416.93985     -337.18994     -416.87496      0              4505.225       31.128         21.465467      33.50929       22390.139      3377.7306      5764.7727      4373.1716      583.59276      330.8629      -935.9865     
  25128000   243.66624     -416.79606     -335.18906     -416.7272       0              2504.7978      31.128         21.465467      33.550004      22417.343      1208.2937      2722.3737      3583.7261     -344.62991     -2704.3603      1157.6354    
  25130000   249.31531     -416.01625     -332.5173      -415.94517      0              3187.343       31.128         21.465467      33.489342      22376.81       4746.8168      2460.2778      2354.9345     -1037.8377     -696.58432     -753.18471    
  25132000   250.38396     -416.38707     -332.53022     -416.32231      0              5153.2366      31.128         21.465467      33.550167      22417.452      4320.2242      5505.3791      5634.1065      557.6743      -1825.1484     -1080.7585    
  25134000   236.81042     -419.18144     -339.87054     -419.11895      0              3383.6258      31.128         21.465467      33.491118      22377.997      1883.7738      4714.6415      3552.4619      881.85432      255.1479      -363.3288     
  25136000   248.70399     -417.68001     -334.38581     -417.60973      0              2862.1078      31.128         21.465467      33.657667      22489.281      3196.3124      3153.7827      2236.2284      39.170556     -315.30445      180.37429    
  25138000   242.81296     -416.7747      -335.45348     -416.7038       0              792.04308      31.128         21.465467      33.781543      22572.052      809.17568      886.38195      680.57161      3.2120496      234.43782     -273.19466    
  25140000   247.77125     -415.54762     -332.56579     -415.47872      0              2813.0235      31.128         21.465467      33.843972      22613.766      2587.723       3918.0283      1933.3193     -361.56571      1085.5533     -366.52322    
  25142000   239.71788     -416.78029     -336.49565     -416.70953      0              3735.6444      31.128         21.465467      33.606827      22455.311      3732.1728      4676.3068      2798.4537     -237.17634     -1545.4688     -278.11441    
  25144000   247.56059     -415.83075     -332.91948     -415.76297      0              2761.1002      31.128         21.465467      33.626437      22468.413      1492.4992      3494.1249      3296.6764      1122.0709      294.01817     -1558.0717    
  25146000   246.13469     -416.29797     -333.86425     -416.22825      0              2595.1114      31.128         21.465467      33.566039      22428.057      3638.6522      1638.5138      2508.1681      113.74299     -421.01408     -312.84519    
  25148000   244.81996     -416.62904     -334.63564     -416.56138      0              2373.3299      31.128         21.465467      33.65209       22485.555      2077.3664      3170.4802      1872.1429     -1097.094       181.64888     -597.13319    
  25150000   242.50636     -417.681       -336.46246     -417.61256      0              3364.6872      31.128         21.465467      33.637766      22475.984      3366.0559      3961.9229      2766.0829      628.05412     -1428.8491     -493.37174    
  25152000   248.69723     -417.60023     -334.30828     -417.52976      0              4200.8652      31.128         21.465467      33.401655      22318.219      2465.574       4088.0569      6048.9646      991.4778       441.73828     -299.64035    
  25154000   245.33052     -416.95371     -334.78932     -416.88609      0              4210.715       31.128         21.465467      33.442841      22345.739      5346.224       3855.1339      3430.7872     -577.66145      381.23242     -1159.2383    
  25156000   247.20331     -416.05929     -333.26767     -415.99144      0              1940.6216      31.128         21.465467      33.617709      22462.582      1027.6696      2481.1049      2313.0904      432.5865       1426.8984      1111.9481    
  25158000   238.50283     -417.78084     -337.90313     -417.71341      0              2513.2813      31.128         21.465467      33.612812      22459.31       2994.1143      1299.4763      3246.2532     -1411.853       323.13863      1656.1904    
  25160000   244.94036     -417.38701     -335.35329     -417.31925      0              2048.611       31.128         21.465467      33.574309      22433.583      1793.37        1738.8152      2613.6478      173.61844      1277.6633      1327.7982    
  25162000   244.56053     -416.46282     -334.55631     -416.39253      0              3297.0408      31.128         21.465467      33.505293      22387.468      3816.4865      4076.2696      1998.3664     -167.98585      717.83252     -515.08875    
  25164000   238.94225     -414.2955      -334.27063     -414.2255       0              2639.3131      31.128         21.465467      33.392558      22312.141      2266.5749      2126.5243      3524.8403      362.68913      651.32295     -1105.4706    
  25166000   246.23579     -417.40507     -334.9375      -417.3377       0              3398.7437      31.128         21.465467      33.461613      22358.282      3204.4006      4160.1024      2831.728      -846.54659     -327.73489     -823.39783    
  25168000   240.47054     -416.20619     -335.66947     -416.13886      0              3607.5821      31.128         21.465467      33.654344      22487.06       4056.3867      4681.7705      2084.5889      461.78387     -1207.3248     -2392.9385    
  25170000   248.89389     -414.35545     -330.99764     -414.28766      0              3236.8412      31.128         21.465467      33.306387      22254.564      1527.0669      4875.6942      3307.7624      566.00775      1074.5748      1138.2812    
  25172000   247.90923     -412.35417     -329.32614     -412.28692      0              2087.0913      31.128         21.465467      33.312773      22258.831      3468.9583      994.40258      1797.913       318.43037     -381.0017      -995.26861    
  25174000   239.65012     -416.48783     -336.22588     -416.42084      0              3433.8494      31.128         21.465467      33.465174      22360.662      2848.002       4549.7181      2903.828      -1829.5416      945.64083     -936.06744    
  25176000   241.822       -415.10003     -334.11069     -415.03392      0              2883.0776      31.128         21.465467      33.377733      22302.235      1956.8159      4485.32        2207.0968     -118.8206       351.0396      -876.55353    
  25178000   250.1159      -415.93856     -332.17149     -415.87116      0              3628.5373      31.128         21.465467      33.280515      22237.276      3354.9545      4420.0669      3110.5906     -466.56492     -869.13112      78.224124    
  25180000   247.92479     -416.02648     -332.99324     -415.95872      0              5592.757       31.128         21.465467      33.266518      22227.924      5664.529       5027.7167      6086.0253     -638.04498      955.92732      806.79613    
  25182000   243.21896     -414.44699     -332.98979     -414.37993      0              4182.8906      31.128         21.465467      33.289108      22243.018      4280.1071      3920.9106      4347.6543     -88.416302     -858.52617      108.18227    
  25184000   237.16439     -415.37151     -335.94206     -415.30534      0              5520.2637      31.128         21.465467      33.307084      22255.029      5199.4068      4580.1152      6781.2692      829.35017      297.46908      1650.3716    
  25186000   246.73332     -415.36458     -332.73038     -415.29516      0              2990.4934      31.128         21.465467      33.316173      22261.103      3693.7862      1301.0019      3976.6922     -731.92638      21.453574     -125.69932    
  25188000   249.06938     -416.06115     -332.64456     -415.99509      0              2994.9861      31.128         21.465467      33.383884      22306.346      1416.5818      3964.5426      3603.834       461.95143      1475.0692      92.383147    
  25190000   244.22047     -415.02167     -333.22905     -414.95512      0              3536.8998      31.128         21.465467      33.701258      22518.407      2578.9379      2592.3686      5439.393       40.550547      23.068344      476.98992    
  25192000   243.80819     -416.01781     -334.36327     -415.95135      0              2409.7631      31.128         21.465467      33.659326      22490.389      4178.6456      1748.5988      1302.0449     -1217.0494      877.74072     -831.70306    
  25194000   243.47299     -416.5404      -334.99812     -416.47413      0              3910.2195      31.128         21.465467      33.489031      22376.602      4521.4772      3735.6125      3473.5686     -46.937076     -899.1534       197.17959    
  25196000   246.19325     -417.45076     -334.99743     -417.3884       0              1872.353       31.128         21.465467      33.537846      22409.219      884.10686      1368.0394      3364.9128      659.17904     -1321.0649      87.048431    
  25198000   237.33711     -416.60867     -337.12138     -416.54464      0              4842.2723      31.128         21.465467      33.501457      22384.905      2751.1833      6078.6835      5696.9503     -599.56142     -412.8086       500.13249    
  25200000   246.45096     -414.76186     -332.22222     -414.69587      0              4153.8824      31.128         21.465467      33.51036       22390.854      3081.2138      4770.733       4609.7005     -357.40522      1686.3506     -345.14228    
  25202000   247.84247     -415.68084     -332.67517     -415.61442      0              2176.3412      31.128         21.465467      33.604052      22453.457      1166.2096      2841.3602      2521.4537     -418.39876     -80.041452     -169.25102    
  25204000   244.33503     -415.34181     -333.51083     -415.27216      0              2227.4065      31.128         21.465467      33.756259      22555.158      1043.8673      1334.9919      4303.3604     -532.50284      582.51606      181.2758     
  25206000   241.99294     -416.61573     -335.56914     -416.54761      0              4237.04        31.128         21.465467      33.610514      22457.774      3412.1647      4067.5134      5231.442       641.10582      974.66306      1369.4696    
  25208000   247.45374     -418.43072     -335.55524     -418.36838      0              1386.4931      31.128         21.465467      33.657004      22488.838      190.00077      1974.5465      1994.9319      244.8424       889.56584     -140.43761    
  25210000   238.62919     -414.87781     -334.95779     -414.80866      0              3920.4795      31.128         21.465467      33.785136      22574.453      3176.2732      3735.6218      4849.5435      1574.6278     -406.93332     -93.67798     
  25212000   245.62776     -416.39027     -334.12633     -416.32425      0              3591.4661      31.128         21.465467      33.490825      22377.801      3244.9032      1774.1353      5755.3598      1401.1965      401.01438     -1277.0311    
  25214000   240.92869     -415.6912      -335.00104     -415.62357      0              2632.986       31.128         21.465467      33.734926      22540.904      3712.8775      3279.5152      906.56515     -1018.8087     -622.32718      617.94094    
  25216000   245.75865     -417.40654     -335.09877     -417.34725      0              2532.5227      31.128         21.465467      33.834174      22607.219      2845.0318      2037.001       2715.5352      986.94022     -1297.3678      1062.5251    
  25218000   247.82327     -414.84068     -331.84143     -414.7742       0              5338.6037      31.128         21.465467      33.842167      22612.56       5214.933       6729.0287      4071.8495      724.80518     -108.48399      442.85011    
  25220000   247.09219     -416.07385     -333.31945     -416.00526      0              613.61497      31.128         21.465467      33.827068      22602.471      1503.7142     -202.60351      539.73426      1311.1667      1029.8256      176.45554    
  25222000   249.66233     -416.85613     -333.24096     -416.8052       0              1403.3726      31.128         21.465467      33.808216      22589.874      1717.5334      1150.936       1341.6486     -1178.6831     -46.577121     -409.20516    
  25224000   242.85683     -414.95812     -333.6222      -414.90112      0              871.93158      31.128         21.465467      33.808236      22589.888      263.43153      689.06982      1663.2934     -795.39593     -170.2103       277.44765    
  25226000   239.2377      -416.41193     -336.2881      -416.34565      0              1960.3596      31.128         21.465467      33.774357      22567.251      972.12577      4342.3437      566.60936     -806.15031      338.25253      150.37628    
  25228000   243.47959     -417.45713     -335.91265     -417.39099      0              2407.6801      31.128         21.465467      33.705826      22521.46       2071.915       1670.0574      3481.068       718.94934     -455.87266      1153.9393    
  25230000   239.08759     -415.88518     -335.81163     -415.81622      0              1770.8264      31.128         21.465467      33.879616      22637.582      1240.1892      2414.7121      1657.5779     -49.835829      402.16077      803.67156    
  25232000   237.91909     -416.40877     -336.72657     -416.34011      0              1092.8649      31.128         21.465467      33.756448      22555.284      503.68899      1589.8639      1185.0419      514.51909      74.728481     -771.59565    
  25234000   240.20829     -416.23199     -335.7831      -416.16621      0              4919.6089      31.128         21.465467      33.682893      22506.136      4284.024       5606.6815      4868.1213      479.90862     -151.25547      139.96524    
  25236000   247.82426     -415.39574     -332.39617     -415.32966      0              421.38106      31.128         21.465467      33.613186      22459.56       2446.2719     -1161.0975     -21.031237     -1209.7229     -252.44175     -2508.0334    
  25238000   236.83224     -414.72929     -335.41109     -414.66362      0              4114.1407      31.128         21.465467      33.6079        22456.028      3133.4716      3459.8208      5749.1296      170.99909      689.77517      120.90899    
  25240000   247.55495     -413.92225     -331.01287     -413.85771      0              2443.5464      31.128         21.465467      33.687129      22508.967      1515.3677      3220.878       2594.3935     -517.71094      661.15762     -400.85896    
  25242000   244.12378     -416.62886     -334.86863     -416.56045      0              3706.527       31.128         21.465467      33.692799      22512.755      4463.4254      3090.5221      3565.6337     -306.74754      60.411948     -233.12383    
  25244000   244.72275     -416.96274     -335.0019      -416.89444      0              1096.5829      31.128         21.465467      33.803648      22586.822      1384.7076      815.2665       1089.7746      549.67483      558.67471     -35.348678    
  25246000   244.01098     -417.22333     -335.50087     -417.16371      0              2776.6579      31.128         21.465467      33.549246      22416.836      895.07115      1962.2992      5472.6035      168.80246      105.69951     -326.11236    
  25248000   242.2216      -416.31295     -335.18978     -416.24691      0              3191.1712      31.128         21.465467      33.77797       22569.665      5314.9711      2896.8006      1361.7419      948.68272     -758.55119     -1115.754     
  25250000   241.46331     -416.02521     -335.156       -415.95704      0              3156.1626      31.128         21.465467      33.661828      22492.061      3113.8791      5538.6004      816.0083       77.494528      1069.9999     -682.69499    
  25252000   243.12199     -418.56615     -337.14143     -418.50082      0              4415.5959      31.128         21.465467      33.671137      22498.281      4635.8065      5387.5389      3223.4423      500.34095     -372.0725      -1501.3264    
  25254000   238.5456      -420.0479      -340.15587     -419.9804       0              3811.7411      31.128         21.465467      33.620145      22464.21       3425.1367      4876.3194      3133.7673      624.85368      247.06496     -154.63471    
  25256000   240.31305     -417.56143     -337.07746     -417.51087      0              1258.4496      31.128         21.465467      33.583847      22439.956      45.61116       2533.8849      1195.8528      246.65271     -85.491188     -1072.7061    
  25258000   250.55633     -419.18217     -335.26758     -419.11604      0              4664.3258      31.128         21.465467      33.722135      22532.357      4243.0523      5551.4237      4198.5015     -1558.9618      66.607951     -190.79486    
  25260000   243.80837     -416.30054     -334.64594     -416.23244      0              2150.2625      31.128         21.465467      33.699389      22517.159      3475.6716      282.37729      2692.7387     -1204.1405      1171.856      -191.00624    
  25262000   244.93683     -414.81524     -332.7827      -414.74784      0              4224.365       31.128         21.465467      33.669291      22497.047      2655.6214      4864.9671      5152.5065     -1277.0005      1661.4104      1125.0276    
  25264000   243.56578     -416.33169     -334.75833     -416.26803      0              3434.8048      31.128         21.465467      33.679816      22504.081      1338.747       4100.8308      4864.8368     -1266.0894      488.49296     -1829.5582    
  25266000   242.4946      -417.34616     -336.13156     -417.28098      0              2264.7508      31.128         21.465467      33.945402      22681.538      2937.515       2944.8417      911.8957       1395.8936      285.53209     -1864.4287    
  25268000   243.59472     -415.31136     -333.72831     -415.24551      0              1995.8823      31.128         21.465467      33.571149      22431.472      3299.8542      497.31921      2190.4736     -927.10159      1041.9022      678.70597    
  25270000   239.13482     -413.06487     -332.97551     -412.99986      0              1272.2306      31.128         21.465467      33.695226      22514.377      1878.0274      510.27096      1428.3933      937.27056     -443.60747     -1449.0294    
  25272000   253.65803     -416.70272     -331.74934     -416.63524      0              3589.4122      31.128         21.465467      33.70216       22519.01       3696.5837      3838.0513      3233.6015     -90.135029      1388.5903      1458.8767    
  25274000   243.65014     -417.10862     -335.50701     -417.04317      0              2571.1018      31.128         21.465467      33.803298      22586.588      1444.3884      1901.7853      4367.1316      1332.9988      522.11751      939.44847    
  25276000   244.8556      -417.18583     -335.18049     -417.12354      0              2279.2352      31.128         21.465467      33.572634      22432.464      1114.651       3385.0865      2337.9681     -450.39798      1526.8416     -2245.3724    
  25278000   249.42618     -416.93953     -333.40345     -416.87434      0              2526.9504      31.128         21.465467      33.48661       22374.985      4534.9387      2723.9552      321.95727     -438.45832     -577.67668     -1571.8447    
  25280000   241.20853     -417.35454     -336.57065     -417.28887      0              1670.5051      31.128         21.465467      33.734842      22540.847      1752.3051     -307.19416      3566.4043     -92.204546     -69.2396        20.791723    
  25282000   245.39912     -417.26309     -335.07573     -417.19834      0              4102.3137      31.128         21.465467      33.50409       22386.664      3013.1838      3119.0112      6174.7461     -599.14729     -368.06659      1474.6301    
  25284000   241.45961     -416.91786     -336.04989     -416.85129      0              2701.709       31.128         21.465467      33.63274       22472.625      2321.1231      1555.841       4228.1628      946.88212      523.54557      2388.3535    
  25286000   250.13343     -416.91475     -333.1418      -416.84965      0              4535.0776      31.128         21.465467      33.735891      22541.549      3498.4894      3310.2197      6796.5236     -143.77409     -551.66938     -723.55204    
  25288000   247.4304      -414.82804     -331.96038     -414.76144      0              4045.9274      31.128         21.465467      33.754156      22553.752      3097.8864      3813.8324      5226.0632      583.11758      2111.0282     -785.29854    
  25290000   244.08062     -416.08649     -334.34071     -416.01939      0              3199.6382      31.128         21.465467      33.808183      22589.852      2980.9694      3310.5275      3307.4177     -98.470947     -718.99075      690.12105    
  25292000   236.87844     -417.56662     -338.23294     -417.50163      0              2431.9256      31.128         21.465467      33.685265      22507.721      2162.9275      3412.7947      1720.0544      481.80655     -78.060484      242.62991    
  25294000   249.63248     -416.83608     -333.23091     -416.77251      0              4887.6028      31.128         21.465467      33.635331      22474.356      3711.1126      6252.5375      4699.1582      761.98811     -390.23729      175.42394    
  25296000   242.26669     -414.78403     -333.64576     -414.71874      0              2331.5959      31.128         21.465467      33.703486      22519.896      768.51541      2729.8642      3496.4079     -645.31577      1654.336      -356.38328    
  25298000   240.12549     -416.20677     -335.78562     -416.14106      0              2707.0066      31.128         21.465467      33.715689      22528.05       2433.085       3743.3707      1944.564       1604.7332     -36.98216       1183.6714    
  25300000   242.96856     -415.66137     -334.28803     -415.59663      0              1345.9336      31.128         21.465467      33.539574      22410.374      1278.1658      1113.2857      1646.3493     -158.33976      386.74624     -100.6862     
  25302000   246.69349     -417.59413     -334.97327     -417.52952      0              4035.3848      31.128         21.465467      33.494931      22380.545      3401.3486      4678.5893      4026.2164     -288.85097     -419.91452     -664.7267     
  25304000   243.97135     -416.02484     -334.31566     -415.96017      0              3581.8637      31.128         21.465467      33.547344      22415.566      1739.5647      4204.0942      4801.9321     -713.69884      353.05623     -743.28411    
  25306000   241.52326     -416.30905     -335.41976     -416.24455      0              1418.8351      31.128         21.465467      33.571153      22431.474      2010.0777      1308.7098      937.71766     -1097.2585      1274.2618      131.70642    
  25308000   245.08908     -417.0306      -334.94707     -416.96644      0              3789.0812      31.128         21.465467      33.617887      22462.701      2981.85        4103.4202      4281.9733      393.66646      1135.6647     -881.51066    
  25310000   247.22505     -416.01656     -333.21767     -415.95432      0              2838.0629      31.128         21.465467      33.580832      22437.941      2963.5035      2255.7791      3294.9061      1954.4035     -491.95544      952.75755    
  25312000   240.66052     -416.6232      -336.02285     -416.56054      0              3192.4889      31.128         21.465467      33.6417        22478.612      3749.7011      4154.0446      1673.721      -232.48415      761.44928      995.74876    
  25314000   244.77589     -414.65999     -332.68135     -414.59568      0              1766.3272      31.128         21.465467      33.878929      22637.123      1554.9909      2537.6961      1206.2946     -407.0306       667.26161      33.06853     
  25316000   240.25859     -415.76382     -335.29808     -415.69674      0              2119.3226      31.128         21.465467      33.849716      22617.604      2165.7556      2048.0747      2144.1376     -1003.6165      435.84934      14.019566    
  25318000   250.58518     -416.09642     -332.17218     -416.03058      0              6141.4279      31.128         21.465467      33.710625      22524.666      5688.553       6318.7952      6416.9354     -122.96864      735.59708      55.737017    
  25320000   248.0648      -416.61662     -333.53649     -416.55464      0              2091.09        31.128         21.465467      33.514056      22393.324      1088.4626      1970.5184      3214.2891      1124.3421      505.26893      210.54438    
  25322000   248.8016      -415.6377      -332.3108      -415.57186      0              2853.8727      31.128         21.465467      33.600492      22451.078      3407.3667      2642.3641      2511.8871      1128.0109     -1657.6678     -1660.3806    
  25324000   246.51177     -415.66785     -333.10784     -415.60377      0              2672.4719      31.128         21.465467      33.901636      22652.295      2461.558       2810.2976      2745.5601      432.72646     -1330.9265      184.72097    
  25326000   243.67097     -415.95476     -334.34618     -415.89297      0              3396.3288      31.128         21.465467      33.729352      22537.179      4664.798       2308.421       3215.7675     -971.54439      1597.458       427.2537     
  25328000   248.96329     -415.2792      -331.89815     -415.21537      0              2192.2373      31.128         21.465467      33.696515      22515.238      2709.3755      1251.8903      2615.4462     -139.85576      812.37446      43.095904    
  25330000   248.60543     -415.02745     -331.76625     -414.96235      0              3028.7141      31.128         21.465467      33.863742      22626.975      5020.3552      1138.8119      2926.9752      1796.8483     -362.25903      308.03204    
  25332000   242.53175     -415.99282     -334.76578     -415.92862      0              4408.0497      31.128         21.465467      33.701669      22518.682      4058.2519      3865.6334      5300.2638     -495.33643     -650.4995       309.0396     
  25334000   240.84422     -416.86229     -336.20042     -416.79803      0              4099.1708      31.128         21.465467      33.783477      22573.344      2545.5056      4598.9668      5153.0401      872.42172      308.53381      50.63572     
  25336000   243.93386     -414.82442     -333.12779     -414.76083      0              5669.4039      31.128         21.465467      33.618996      22463.442      4992.1569      6820.3142      5195.7407     -103.61351     -2169.1138     -180.29017    
  25338000   244.31447     -414.4297      -332.6056      -414.36554      0              5802.0195      31.128         21.465467      33.516658      22395.062      6195.3771      4848.9231      6361.7584     -209.59378     -600.09942      725.39457    
  25340000   246.74571     -415.57998     -332.94162     -415.51552      0              3491.3442      31.128         21.465467      33.721189      22531.725      3072.7371      3562.209       3839.0865     -665.82235      196.1642      -1343.0418    
  25342000   243.20976     -414.22912     -332.775       -414.16534      0              2981.326       31.128         21.465467      33.455873      22354.447      1580.4005      2323.5487      5040.0288      159.10281     -287.1982       628.54114    
  25344000   245.51883     -417.02494     -334.79749     -416.95862      0              1617.9685      31.128         21.465467      33.636118      22474.882     -144.08438      3090.8856      1907.1042     -581.19009      2094.4472     -635.75293    
  25346000   248.20187     -415.88579     -332.75975     -415.83844      0              2824.0798      31.128         21.465467      33.406958      22321.763      2046.8436      2858.2644      3567.1315      429.51763      635.83997     -1207.7827    
  25348000   240.85227     -414.58501     -333.92044     -414.53604      0              636.77807      31.128         21.465467      33.442733      22345.667      391.75297      1569.4756     -50.894364      613.52781      813.46775      267.55497    
  25350000   242.9062      -414.2775      -332.92504     -414.21371      0              5185.2726      31.128         21.465467      33.352703      22285.511      5929.0326      3426.454       6200.3312     -669.74991     -214.48961     -455.99178    
  25352000   246.52735     -416.16432     -333.5991      -416.09946      0              3104.3299      31.128         21.465467      33.480312      22370.776      3985.1034      3880.5985      1447.2878      417.89648     -36.91019       1178.183     
  25354000   248.63734     -413.19214     -329.92025     -413.14177      0              2915.3935      31.128         21.465467      33.362968      22292.37       1653.5893      3815.7569      3276.8343     -1480.2351     -807.68934      1468.9691    
  25356000   243.55712     -417.27259     -335.70214     -417.20922      0              2320.873       31.128         21.465467      33.584522      22440.407      700.16249      2334.4084      3928.0481      1133.3411      1271.4645      31.078364    
  25358000   246.65963     -413.60744     -330.99792     -413.54155      0              1898.6602      31.128         21.465467      33.475987      22367.886      3095.8419      1130.483       1469.6558      549.44089     -342.40594     -1852.6511    
  25360000   241.22704     -415.19425     -334.40417     -415.12841      0              4940.2138      31.128         21.465467      33.467797      22362.414      5791.5746      4660.399       4368.6678      2523.1814      562.5065       417.90028    
  25362000   251.07241     -415.99875     -331.91133     -415.93393      0              3912.31        31.128         21.465467      33.609018      22456.775      3327.6589      4166.618       4242.6531     -991.67041      1955.1        -151.89573    
  25364000   244.09642     -415.32423     -333.57316     -415.26109      0              3391.6954      31.128         21.465467      33.59945       22450.382      1699.8867      4423.7783      4051.4212      279.43316     -1900.1093      147.41411    
  25366000   245.32211     -415.10781     -332.94624     -415.04251      0              3158.6498      31.128         21.465467      33.553245      22419.509      3974.687       3380.6523      2120.6101      719.13277      359.21527     -279.40047    
  25368000   243.18713     -413.04842     -331.60188     -412.98295      0             -69.371216      31.128         21.465467      33.663688      22493.304     -783.57854     -277.73154      853.19644     -146.34867      226.37303     -472.5737     
  25370000   245.98281     -417.22792     -334.84507     -417.16418      0              3813.149       31.128         21.465467      33.456288      22354.724      2988.9891      3467.0433      4983.4148     -293.28104     -652.90108      200.48518    
  25372000   246.7332      -413.29222     -330.65806     -413.25375      0              1664.372       31.128         21.465467      33.796521      22582.06       462.11271      1645.0429      2885.9603      161.94215      1519.7509     -688.18984    
  25374000   243.12606     -417.50056     -336.07447     -417.43721      0              1476.7579      31.128         21.465467      33.591742      22445.232      2886.1564      1538.889       5.2283503     -238.19266     -1229.073      -2057.7107    
  25376000   247.11111     -416.84647     -334.08574     -416.78176      0              3213.0003      31.128         21.465467      33.646342      22481.714      2269.5618      4163.6887      3205.7503     -861.57764      359.24871     -952.22586    
  25378000   259.198       -415.62477     -328.81598     -415.57155      0              1449.4008      31.128         21.465467      33.553052      22419.379      1652.1405      2252.6995      443.36241     -661.70866     -1057.4746      1707.8296    
  25380000   249.4519      -415.69983     -332.15514     -415.63659      0              3224.2729      31.128         21.465467      33.576826      22435.265      2523.906       2539.9807      4608.9319     -956.98917      734.13269     -172.17241    
  25382000   246.71772     -415.4725      -332.84352     -415.4097       0              4569.0555      31.128         21.465467      33.441749      22345.01       5274.9453      3746.7302      4685.4908     -1585.2949      947.179        833.75583    
  25384000   245.01193     -417.74177     -335.68408     -417.67896      0              2202.9939      31.128         21.465467      33.597642      22449.174      3484.8789      1986.3134      1137.7893      170.92152      144.59037     -2166.3723    
  25386000   247.30058     -415.2262      -332.40201     -415.16548      0              3123.5694      31.128         21.465467      33.502521      22385.616      2975.5989      2462.8281      3932.2813     -919.61653      258.00148     -267.59792    
  25388000   245.58798     -415.10089     -332.85028     -415.0363       0              3120.0281      31.128         21.465467      33.573721      22433.19       2448.9104      4700.9591      2210.2146     -600.89         1333.482       174.07766    
  25390000   244.67776     -413.47994     -331.53417     -413.41794      0              1799.7617      31.128         21.465467      33.614146      22460.201      929.07563      3193.098       1277.1115      530.6793      -1868.7722      24.323896    
  25392000   242.68318     -414.28932     -333.01156     -414.22518      0              2372.005       31.128         21.465467      33.627641      22469.218      2225.5899      2502.8791      2387.5461      835.95256      1341.6176      1102.3313    
  25394000   238.18331     -415.62968     -335.85898     -415.56556      0              4398.4588      31.128         21.465467      33.5361        22408.052      5866.4633      3574.898       3754.0151      243.0762       433.81041      670.09214    
  25396000   243.86807     -416.75713     -335.08253     -416.69492      0              4316.4713      31.128         21.465467      33.718136      22529.685      5337.2371      4168.4508      3443.7259      437.22853      697.72322      171.78066    
  25398000   243.6323      -415.17495     -333.57932     -415.11609      0              3802.8532      31.128         21.465467      33.554437      22420.305      1321.8647      4116.8818      5969.8133     -665.35174      828.21699     -374.00786    
  25400000   236.59056     -415.59672     -336.35945     -415.55235      0              918.58688      31.128         21.465467      33.777631      22569.438      292.82174      2281.1356      181.80333     -332.72         44.01602      -403.70991    
  25402000   243.36557     -416.5926      -335.0863      -416.52889      0              2697.3218      31.128         21.465467      33.714321      22527.136      1975.1909      4017.3226      2099.4518      665.03361     -1189.8207     -2163.086     
  25404000   245.11852     -415.90151     -333.80812     -415.83753      0              3353.9077      31.128         21.465467      33.385569      22307.472      3519.4332      2625.6388      3916.6511     -721.09834     -295.1696       76.042863    
  25406000   246.49988     -414.70588     -332.14986     -414.64326      0              3700.9405      31.128         21.465467      33.391452      22311.402      4680.9848      2554.2199      3867.617       182.00807      1744.4545     -177.11355    
  25408000   252.66939     -411.86965     -327.24738     -411.8064       0              3666.4785      31.128         21.465467      33.378188      22302.539      3933.3823      3717.3767      3348.6766      551.5811      -852.26462     -37.779365    
  25410000   254.08821     -415.1659      -330.06845     -415.10193      0              4595.2683      31.128         21.465467      33.501957      22385.239      3489.2245      3915.1697      6381.4106      410.73249      259.16246      27.64703     
  25412000   243.39274     -415.45448     -333.93908     -415.39272      0              1802.7425      31.128         21.465467      33.564255      22426.865      1988.5763      1469.0239      1950.6274     -719.45504      58.075695      581.46476    
  25414000   242.08093     -414.11191     -333.03585     -414.07229      0              3202.3552      31.128         21.465467      33.390504      22310.769      2722.5924      1340.1053      5544.3678     -483.76762      304.464       -4.9615394    
  25416000   243.45388     -416.63666     -335.10078     -416.57299      0              2133.7148      31.128         21.465467      33.33876       22276.195      2883.291       568.58482      2949.2686     -21.583222     -1237.3938     -382.23677    
  25418000   243.76476     -415.25914     -333.61914     -415.19673      0              3388.2136      31.128         21.465467      33.389634      22310.187      3557.8667      3800.6691      2806.1049     -84.40891      -1362.4013      122.67368    
  25420000   246.82473     -411.15188     -328.48706     -411.09025      0              3524.5678      31.128         21.465467      33.348143      22282.464      3591.2094      2941.9893      4040.5045      155.64098     -616.32185     -499.54704    
  25422000   239.45328     -414.02638     -333.83035     -413.96385      0              2780.2452      31.128         21.465467      33.218199      22195.639      2895.741       4024.068       1420.9265      60.252981     -1586.9062     -165.3275     
  25424000   242.65212     -414.34662     -333.07926     -414.28331      0              3238.0902      31.128         21.465467      33.237953      22208.837      3842.9706      2616.5278      3254.7722     -1115.984      -1004.5029     -473.37835    
  25426000   245.94473     -417.71706     -335.34696     -417.65472      0              3824.5408      31.128         21.465467      33.301119      22251.044      3831.4932      5259.6954      2382.4337     -713.28869     -899.27287      686.85115    
  25428000   244.86453     -417.57429     -335.56597     -417.51102      0              3480.9571      31.128         21.465467      33.466371      22361.461      3886.9304      2972.4382      3583.5026      180.39139     -1726.7624     -877.2476     
  25430000   240.35582     -415.66333     -335.16503     -415.59969      0              2917.4351      31.128         21.465467      33.478379      22369.484      3287.3272      4471.0883      993.8897       2122.3176     -1229.2463     -229.3612     
  25432000   245.00743     -412.16485     -330.10867     -412.10286      0              3498.1478      31.128         21.465467      33.285496      22240.605      3701.3393      4114.1096      2678.9945      497.78869     -7.4919991     -1106.966     
  25434000   235.12022     -416.11204     -337.36722     -416.049        0              2594.9265      31.128         21.465467      33.342271      22278.541      615.67398      4390.5158      2778.5898      687.57237      1051.7483     -751.31152    
  25436000   240.18197     -414.19088     -333.7508      -414.13014      0              1971.9696      31.128         21.465467      33.577305      22435.585      3149.2141      704.84243      2061.8521     -1968.0929     -113.93037     -14.360843    
  25438000   248.52972     -412.0395      -328.80365     -411.97649      0              2609.3994      31.128         21.465467      33.496777      22381.778      3098.6163      1746.4378      2983.1439      929.15313      404.41427      1242.8018    
  25440000   243.95345     -415.78726     -334.08407     -415.72486      0              2256.361       31.128         21.465467      33.537164      22408.764      1222.5363      2077.6905      3468.8562      343.48544      1259.4277      1169.1121    
  25442000   243.31055     -416.54713     -335.05925     -416.48536      0              1406.5546      31.128         21.465467      33.568262      22429.542      1036.4744     -373.85956      3557.049       111.66425      143.04092      332.78617    
  25444000   246.65441     -416.32042     -333.71265     -416.25878      0              2811.5538      31.128         21.465467      33.648585      22483.213      2712.5143      3392.2986      2329.8486      992.74587     -766.59359      1919.2386    
  25446000   242.24948     -417.90597     -336.77346     -417.84339      0              3457.6515      31.128         21.465467      33.799969      22584.364      3286.959       4170.9602      2915.0353     -685.22414      418.21381     -911.9469     
  25448000   244.21737     -417.22255     -335.43097     -417.16009      0              4046.4836      31.128         21.465467      33.678613      22503.277      4224.9037      3233.5213      4681.0259      219.91494      492.99964      1693.0149    
  25450000   247.48672     -416.82656     -333.94003     -416.76458      0              3165.3834      31.128         21.465467      33.812377      22592.654      2021.8603      3455.6663      4018.6237      944.45865      1794.9292      1436.8679    
  25452000   244.77714     -415.2771      -333.29805     -415.21413      0              844.17807      31.128         21.465467      33.745209      22547.774      1243.9909      298.11231      990.43099      1848.5514      344.24626      196.3306     
  25454000   250.9073      -417.05935     -333.02723     -416.99735      0              3593.3666      31.128         21.465467      33.706437      22521.868      4037.0474      3763.0558      2979.9967      992.72245     -197.16513     -89.92168     
  25456000   240.71418     -416.9743      -336.35598     -416.91126      0              1349.1555      31.128         21.465467      33.72917       22537.057      267.66801      1253.1537      2526.6448      343.79733     -13.634724     -1106.8818    
  25458000   247.03722     -415.99027     -333.25428     -415.92769      0              2826.3911      31.128         21.465467      33.623058      22466.156      3169.5548      1891.3455      3418.273      -49.275925      347.80998      41.326357    
  25460000   244.39144     -414.29308     -332.4432      -414.23057      0              2238.6716      31.128         21.465467      33.541504      22411.664      896.62081      2714.7344      3104.6595     -82.394888     -390.47562      711.91083    
  25462000   249.52787     -415.57804     -332.0079      -415.55963      0              1949.9349      31.128         21.465467      33.817863      22596.32      -425.54252      3196.0263      3079.3209     -713.8778       150.52735      1691.1465    
  25464000   247.64882     -416.04339     -333.10257     -415.98579      0              1780.4312      31.128         21.465467      33.697881      22516.151      889.05677      2456.0259      1996.211       358.93361      1198.1169      1280.4651    
  25466000   240.61696     -417.34086     -336.75511     -417.27876      0              2643.0125      31.128         21.465467      33.81849       22596.739      1856.0142      2764.1659      3308.8575     -83.937841      753.28194     -1010.5591    
  25468000   245.09768     -415.45073     -333.36433     -415.38922      0              1338.1959      31.128         21.465467      33.784398      22573.96       962.28341      974.56713      2077.737       743.94823      1269.1115     -1401.3696    
  25470000   242.86947     -415.45096     -334.11081     -415.3892       0              3452.4787      31.128         21.465467      33.715032      22527.611      2821.0825      4777.392       2758.9617      1551.9754     -1455.7543     -1345.7056    
  25472000   241.34433     -417.78282     -336.95345     -417.71986      0              4645.5318      31.128         21.465467      33.567833      22429.256      4117.6531      5399.6297      4419.3125      322.00741      352.56721      1195.3535    
  25474000   247.3549      -414.68399     -331.84161     -414.62098      0              3864.1699      31.128         21.465467      33.535355      22407.555      3540.7607      4132.0832      3919.6658      701.60703      500.52241     -145.47987    
  25476000   246.00234     -415.33309     -332.9437      -415.27105      0              2440.8465      31.128         21.465467      33.532525      22405.664      576.3183       3874.2344      2871.9868     -402.83304     -453.24105      2016.1394    
  25478000   247.49562     -415.37921     -332.4897      -415.31806      0              4367.355       31.128         21.465467      33.521539      22398.323      4074.2166      3879.9487      5147.8998      6.9952826     -380.99418     -50.887492    
  25480000   242.69509     -414.90105     -333.6193      -414.83836      0              1736.7167      31.128         21.465467      33.425309      22334.025      1664.0187      714.02754      2832.1038     -1351.1436      1103.186       1035.0212    
  25482000   245.40609     -413.31667     -331.12697     -413.28824      0              3657.3727      31.128         21.465467      33.449132      22349.942      2611.0322      5345.3881      3015.6978     -1891.9955      1319.751      -1105.9437    
  25484000   245.52924     -417.29873     -335.06779     -417.23689      0              3831.4995      31.128         21.465467      33.334786      22273.539      3940.9899      4549.5979      3003.9108     -337.23833     -724.59767      793.69051    
  25486000   246.7973      -417.84394     -335.18831     -417.78118      0              890.61202      31.128         21.465467      33.448449      22349.486      569.70739     -281.10324      2383.2319      472.22691     -1582.8452     -235.79326    
  25488000   246.34086     -419.38959     -336.88682     -419.32693      0              2566.679       31.128         21.465467      33.662214      22492.319      2955.6851      2127.2896      2617.0624     -662.46724      221.81597     -2255.7875    
  25490000   244.74473     -414.64927     -332.68107     -414.60064      0              3836.1051      31.128         21.465467      33.557052      22422.052      4412.7503      4803.823       2291.7421     -350.90866     -1035.8342      1283.2629    
  25492000   252.05769     -416.46744     -332.05003     -416.40537      0              4356.2882      31.128         21.465467      33.393279      22312.623      5216.8474      2359.0714      5492.9459      669.72302      745.82181     -235.81136    
  25494000   251.45331     -415.8951      -331.6801      -415.83252      0              2987.973       31.128         21.465467      33.470094      22363.949      2326.6111      2049.5164      4587.7915     -795.74144      325.30571     -904.53283    
  25496000   246.98895     -414.285       -331.56518     -414.22283      0              3253.8003      31.128         21.465467      33.393221      22312.584      3448.4006      4395.4152      1917.585      -1086.532       36.723143     -605.86344    
  25498000   249.10001     -415.71804     -332.2912      -415.6557       0              2265.5766      31.128         21.465467      33.574178      22433.495      4810.0177      1318.3452      668.36687      474.57623     -648.40337      1722.5798    
  25500000   239.31254     -415.43707     -335.28818     -415.39426      0              1123.1123      31.128         21.465467      33.727577      22535.993      2938.6819      678.61748     -247.96264      1129.902       454.37188     -720.82346    
  25502000   244.00743     -415.15176     -333.43049     -415.0905       0              3624.8274      31.128         21.465467      33.455819      22354.411      2528.0574      4447.8521      3898.5728     -936.16809      197.97355     -905.73146    
  25504000   242.94469     -415.26892     -333.90358     -415.20762      0              2632.9112      31.128         21.465467      33.476662      22368.337      3961.5768      1152.6195      2784.5373      537.97927     -377.1256       29.775588    
  25506000   248.87668     -417.76589     -334.41384     -417.70372      0              4991.0091      31.128         21.465467      33.357324      22288.598      5633.2338      4367.2593      4972.534      -411.72811     -715.50623     -244.71249    
  25508000   237.95893     -413.43178     -333.73623     -413.44366      0              3573.8154      31.128         21.465467      33.597033      22448.767      5166.2052      1346.9572      4208.2838      212.4944      -532.78441      1051.4045    
  25510000   245.41058     -418.46724     -336.27604     -418.40559      0              2082.0196      31.128         21.465467      33.556293      22421.545      2132.4468      538.95139      3574.6607     -227.16863      509.55762     -604.44975    
  25512000   242.41972     -414.97023     -333.7807      -414.90813      0              4466.7874      31.128         21.465467      33.479215      22370.043      6195.5333      3099.3237      4105.5051      702.83009      664.40109      783.60393    
  25514000   239.4903      -415.58759     -335.37917     -415.52595      0              3744.6526      31.128         21.465467      33.531003      22404.647      3185.2458      3339.4656      4709.2463     -606.05041     -1031.3379     -351.31575    
  25516000   234.6199      -414.91164     -336.33437     -414.85005      0              817.4455       31.128         21.465467      33.610458      22457.737      436.42167      747.62191      1268.2929     -512.71734      65.175394     -692.6076     
  25518000   247.57028     -416.36418     -333.44966     -416.30315      0             -125.27836      31.128         21.465467      33.712385      22525.842      248.86884      572.96368     -1197.6676      258.90869      148.62447      18.09349     
  25520000   246.65504     -417.83537     -335.22739     -417.77297      0              3208.7281      31.128         21.465467      33.37039       22297.329      2377.4009      4895.0535      2353.7298      179.70167     -670.34306      630.54443    
  25522000   246.8201      -415.84838     -333.18511     -415.78744      0              4201.3117      31.128         21.465467      33.388216      22309.24       4741.8181      3436.9868      4425.1302     -578.81794     -1017.191       777.40781    
  25524000   246.79566     -416.08637     -333.43129     -416.02535      0              3748.2019      31.128         21.465467      33.410441      22324.09       3724.5223      4390.0282      3130.0553      1800.235       541.52645     -597.78142    
  25526000   248.05481     -415.17068     -332.09389     -415.10957      0              2531.8257      31.128         21.465467      33.502197      22385.399      4650.4434      2611.3117      333.72193     -60.169049      849.41823     -303.08801    
  25528000   245.84496     -416.02729     -333.6906      -415.96547      0              5108.1153      31.128         21.465467      33.512139      22392.042      3325.731       6981.7386      5016.8762      1241.7161      687.6872       1118.2851    
  25530000   243.34277     -418.17916     -336.6805      -418.1183       0              3458.6599      31.128         21.465467      33.442709      22345.651      3576.4465      3398.2761      3401.257      -1065.1121     -12.947358     -1085.5193    
  25532000   244.30049     -414.98743     -333.16801     -414.92626      0              3883.6872      31.128         21.465467      33.40684       22321.684      4140.8833      4654.5737      2855.6046     -187.28854     -2113.1645      842.73808    
  25534000   246.06066     -415.90675     -333.49783     -415.84605      0              4713.921       31.128         21.465467      33.330701      22270.809      2793.6247      5199.4172      6148.7212      457.61324     -289.37217     -1040.8667    
  25536000   242.22826     -416.63425     -335.50885     -416.5726       0              2039.4484      31.128         21.465467      33.474381      22366.813      2459.5705      1183.386       2475.3887     -1490.0267     -554.91488      84.358222    
  25538000   243.83204     -417.47028     -335.80775     -417.40895      0              3657.1194      31.128         21.465467      33.338406      22275.958      3380.3007      4340.7709      3250.2866      1025.8863     -88.559749     -3707.1736    
  25540000   250.12094     -412.9144      -329.14563     -412.85295      0              3163.903       31.128         21.465467      33.374948      22300.374      2297.5299      3172.3087      4021.8704      1359.665      -520.31842      302.01504    
  25542000   240.88235     -413.62042     -332.94578     -413.56001      0              2696.7879      31.128         21.465467      33.34565       22280.798      2558.8199      2360.9613      3170.5827     -435.75275     -236.20322      256.06326    
  25544000   246.13636     -414.37027     -331.93599     -414.30921      0              1304.2089      31.128         21.465467      33.458827      22356.421      392.05209      1103.3669      2417.2077     -12.50254      -308.86867      476.35072    
  25546000   247.07806     -416.95277     -334.20311     -416.89228      0              3459.4935      31.128         21.465467      33.365509      22294.067      1400.8877      5886.274       3091.3188      621.84685     -283.8691      -1226.1505    
  25548000   246.0689      -415.93795     -333.52626     -415.87576      0              3310.2253      31.128         21.465467      33.173825      22165.989      3082.2042      3005.3774      3843.0942     -474.70343      1311.992      -751.88152    
  25550000   246.61717     -417.79026     -335.19496     -417.72876      0              3832.4951      31.128         21.465467      33.244762      22213.387      1029.574       5937.4065      4530.5047      453.32791     -278.51966     -1362.2947    
  25552000   240.5445      -416.41319     -335.8517      -416.35221      0              2721.7414      31.128         21.465467      33.280627      22237.351      1543.1549      6231.2524      390.817        1045.3684     -552.28782     -667.19506    
  25554000   242.47035     -415.76301     -334.55653     -415.70242      0              3015.5836      31.128         21.465467      33.234303      22206.399      1352.8613      6294.0111      1399.8785      448.99977      580.52766      869.76382    
  25556000   254.53285     -416.8395      -331.59313     -416.77796      0              4438.1291      31.128         21.465467      33.18711       22174.866      6476.3056      4078.801       2759.2806     -1213.2555     -1575.607      -563.8589     
[...]
  26122000   239.27716     -417.63267     -337.49563     -417.58581      0              1809.8954      31.128         21.465467      33.450046      22350.553      1915.7234      899.90482      2614.058       235.02976     -806.17887      216.08976    
  26124000   244.97012     -418.60108     -336.5574      -418.54643      0              4525.0992      31.128         21.465467      33.335431      22273.97       4321.3235      4372.9324      4881.0418      1494.3341      1261.5333      1022.5579    
  26126000   245.11734     -416.11851     -334.02552     -416.06503      0              2471.0957      31.128         21.465467      33.386886      22308.351      3199.4785      2374.3272      1839.4814     -459.32108     -882.10131     -191.98393    
  26128000   245.64497     -419.73019     -337.46049     -419.68597      0              3577.2623      31.128         21.465467      33.291639      22244.709      3310.0391      3235.8183      4185.9296      1010.0672     -262.90857      419.69906    
  26130000   248.40891     -418.76104     -335.56566     -418.71062      0              3958.8038      31.128         21.465467      33.384902      22307.025      2438.6455      3334.6876      6103.0783      581.66781      1478.5229      371.32872    
  26132000   248.08258     -418.84792     -335.76183     -418.79891      0              3962.3329      31.128         21.465467      33.201305      22184.35       4649.8508      3934.7204      3302.4276      1128.9752     -649.17158      226.94472    
  26134000   247.09313     -414.27532     -331.5206      -414.22589      0              4662.5287      31.128         21.465467      33.443294      22346.042      2962.7536      5923.6193      5101.2133      907.79177     -2193.6193     -264.58922    
  26136000   248.31987     -419.17644     -336.01088     -419.12512      0              5214.0863      31.128         21.465467      33.455929      22354.484      5200.9397      6250.817       4190.5021     -498.15259     -541.44337      1093.7327    
  26138000   243.56809     -420.44634     -338.87221     -420.39592      0              2642.2355      31.128         21.465467      33.387766      22308.94       2274.4285      2795.8335      2856.4445     -963.95663      2106.1127      375.50266    
  26140000   246.86629     -416.7894      -334.11067     -416.73524      0              2356.7042      31.128         21.465467      33.472313      22365.431      3142.2864      1695.4731      2232.3532     -714.63392     -611.96021      391.34859    
  26142000   237.13495     -415.39421     -335.97463     -415.34337      0              2347.3068      31.128         21.465467      33.569792      22430.565      2748.0251      1907.2665      2386.6286      1290.751       149.31425      141.80133    
  26144000   240.9314      -418.73483     -338.04376     -418.68542      0              2286.4477      31.128         21.465467      33.592768      22445.917      567.51383      3656.2727      2635.5566      637.24961     -834.80637      76.247837    
  26146000   245.54975     -419.81782     -337.58        -419.76349      0              2644.6799      31.128         21.465467      33.566676      22428.483      2567.2164      2512.6825      2854.1407      360.32123     -593.58234     -393.5946     
  26148000   242.00872     -416.74836     -335.69649     -416.69397      0              4034.3689      31.128         21.465467      33.58003       22437.406      4380.8347      4052.9609      3669.311       135.52218     -966.24929     -669.76963    
  26150000   244.7227      -417.92788     -335.96706     -417.87407      0              2210.6297      31.128         21.465467      33.655653      22487.935     -129.25458      2540.2737      4220.87       -1672.732       713.9501      -113.16398    
  26152000   247.12927     -417.12569     -334.35888     -417.07705      0              1967.1652      31.128         21.465467      33.431942      22338.456      1716.3679      1847.3795      2337.7481      860.58997     -1211.0212      3.8632228    
  26154000   240.80941     -414.302       -333.65179     -414.24869      0              2989.4774      31.128         21.465467      33.499136      22383.354      3785.4843      2432.4677      2750.4804      1135.0587     -131.17587     -1019.3612    
  26156000   249.32121     -416.32681     -332.82589     -416.27735      0              3902.4927      31.128         21.465467      33.404035      22319.81       2714.1165      3317.2214      5676.1403      677.19799     -59.313575      6.5328283    
  26158000   241.30595     -417.21123     -336.39472     -417.17304      0              2993.854       31.128         21.465467      33.34872       22282.85       4057.4724      1978.1722      2945.9173     -103.4699       768.48159     -525.4775     
  26160000   249.08505     -418.59544     -335.17361     -418.54831      0              4254.0556      31.128         21.465467      33.429413      22336.767      4339.0414      2465.035       5958.0905      1299.66        91.458487      410.26843    
  26162000   242.39338     -417.64053     -336.45983     -417.58483      0              3073.8285      31.128         21.465467      33.39221       22311.909      2381.5665      3884.0937      2955.8255      1472.0111     -886.97578      183.29399    
  26164000   251.46067     -418.11202     -333.89457     -418.06952      0              2547.8712      31.128         21.465467      33.39954       22316.806      1267.1943      1891.7725      4484.6468      896.41099      128.67137     -197.36803    
  26166000   246.25431     -417.53323     -335.05945     -417.49567      0              2635.0034      31.128         21.465467      33.557934      22422.641      2245.5318      4133.6378      1525.8406     -84.577762      1631.268      -1400.9086    
  26168000   243.55018     -415.43605     -333.86792     -415.38799      0              3007.2049      31.128         21.465467      33.661314      22491.717      3414.8976      4153.7545      1452.9626     -976.60014      1874.6481     -520.31831    
  26170000   250.66746     -416.08365     -332.13185     -416.02947      0              3543.0895      31.128         21.465467      33.476132      22367.983      4345.6653      4317.9854      1965.6179      645.06287     -221.39639      67.857469    
  26172000   243.25224     -416.4241      -334.95576     -416.37767      0              3921.0728      31.128         21.465467      33.624388      22467.044      4247.7405      3827.5586      3687.9194      1729.8773      360.52749     -805.09927    
  26174000   244.46623     -418.52655     -336.65162     -418.47249      0              3037.4641      31.128         21.465467      33.679007      22503.54       3022.8034      5298.9565      790.63244     -616.53614      2278.0748     -711.21747    
  26176000   247.49744     -418.08467     -335.19455     -418.03382      0              2686.9805      31.128         21.465467      33.539692      22410.453      3029.5088      1945.522       3085.9106     -288.2349      -1.0759166      26.956193    
  26178000   251.39867     -420.3461      -336.1494      -420.2996       0              4337.8244      31.128         21.465467      33.218457      22195.811      5027.7949      2544.3576      5441.3206      192.45097      197.84241     -77.710039    
  26180000   245.83638     -417.55706     -335.22325     -417.5038       0              4490.0028      31.128         21.465467      33.46055       22357.572      4335.2049      4158.9996      4975.8039      1272.3378     -1671.7882      1495.6631    
  26182000   242.49255     -419.07778     -337.86387     -419.02531      0              2576.9596      31.128         21.465467      33.492031      22378.607      1518.1974      2118.3983      4094.2831      2204.6384      93.398373      1384.7668    
  26184000   244.90818     -414.31538     -332.29244     -414.26177      0              4162.7544      31.128         21.465467      33.518279      22396.145      4908.0715      3314.8929      4265.2989     -875.60759      1602.4244      480.42565    
  26186000   239.0893      -417.10917     -337.03504     -417.06412      0              1866.3076      31.128         21.465467      33.598827      22449.966      1815.5146      1375.518       2407.8901     -2332.9994      1667.3718     -1076.7343    
  26188000   243.77724     -415.65541     -334.01123     -415.60796      0              3491.252       31.128         21.465467      33.618524      22463.126      3011.417       4601.0563      2861.2827      255.80576      95.578073      1476.7639    
  26190000   244.79167     -419.26639     -337.28247     -419.22022      0              1280.3506      31.128         21.465467      33.522214      22398.774      1320.6881      1519.7535      1000.6101      1911.7438     -569.06495      86.154878    
  26192000   240.83024     -416.90558     -336.24839     -416.85948      0              3588.5859      31.128         21.465467      33.68362       22506.622      2506.0782      4445.6094      3814.07       -255.45103      1577.1572     -715.67307    
  26194000   242.14776     -416.4879      -335.38946     -416.44079      0              2675.2858      31.128         21.465467      33.3013        22251.164      3446.8289      2289.6397      2289.3889     -1411.6569     -653.97021     -1053.0143    
  26196000   242.33112     -415.61749     -334.45763     -415.57083      0              2546.442       31.128         21.465467      33.341454      22277.994      3059.2424      2840.6721      1739.4114      993.81659      106.69282      374.01274    
  26198000   241.02755     -418.20684     -337.48357     -418.15745      0              1322.9784      31.128         21.465467      33.504236      22386.762      2112.1948     -21.833253      1878.5736     -1974.5284     -471.49511     -112.15099    
  26200000   244.1595      -417.77231     -336.00011     -417.72835      0              2096.0235      31.128         21.465467      33.509695      22390.41       3316.6418      3190.4246     -218.99602      180.3747       2184.25        1162.4902    
  26202000   245.20335     -416.85957     -334.73777     -416.80885      0              1679.9452      31.128         21.465467      33.608454      22456.398      2705.3873     -1026.0196      3360.4677      561.39735      736.02897      1084.0999    
  26204000   243.85726     -415.57753     -333.90656     -415.52413      0              2837.0327      31.128         21.465467      33.475661      22367.669      3569.9964      624.2904       4316.8112     -103.84752      430.30829      799.46187    
  26206000   252.27879     -415.65606     -331.16461     -415.60044      0              3655.8807      31.128         21.465467      33.450681      22350.977      3003.3949      4276.7884      3687.4589      1238.4584      654.25371     -213.91117    
  26208000   241.54615     -414.47219     -333.57523     -414.41664      0              2173.8003      31.128         21.465467      33.426006      22334.491      2900.258       764.03167      2857.1113     -1217.9643      737.55775      64.098157    
  26210000   245.17205     -416.26856     -334.15725     -416.21318      0              5694.5769      31.128         21.465467      33.29881       22249.501      5024.6246      5970.7263      6088.3797      327.19943      540.67127     -278.41317    
  26212000   244.05664     -418.69998     -336.96223     -418.64983      0              3538.8751      31.128         21.465467      33.309858      22256.883      2357.0842      6212.3133      2047.2278      2420.857      -939.43711     -1391.3573    
  26214000   255.40778     -416.00399     -330.46459     -415.94866      0              3268.9111      31.128         21.465467      33.480206      22370.705      4756.133       4018.271       1032.3292      753.05837     -584.03949      162.46971    
  26216000   246.44857     -413.29063     -330.7518      -413.23698      0              3885.2095      31.128         21.465467      33.469069      22363.264      4936.4381      4343.9533      2375.2371     -424.88838     -13.27062       335.12888    
  26218000   250.14958     -416.52984     -332.75149     -416.47631      0              5199.3134      31.128         21.465467      33.337936      22275.644      4827.9856      4785.7596      5984.195       944.94161      2163.2481     -198.78777    
  26220000   245.13763     -417.43627     -335.33648     -417.38212      0              2048.081       31.128         21.465467      33.4505        22350.856      1624.2119      1465.4667      3054.5645     -635.16966     -84.932383     -209.8501     
  26222000   246.41315     -416.34566     -333.81868     -416.31282      0              665.24613      31.128         21.465467      33.596174      22448.193     -141.91482      514.59496      1623.0583      458.53905      1499.5673     -172.77878    
  26224000   243.26095     -416.17128     -334.70001     -416.1182       0              3003.9753      31.128         21.465467      33.536278      22408.171      3072.8596      235.20339      5703.8629     -810.86936     -580.44816     -1107.4669    
  26226000   241.29227     -418.14588     -337.33395     -418.0926       0              2504.3585      31.128         21.465467      33.594036      22446.764      1167.1295      969.46274      5376.4831      1674.7772      59.078656      283.59254    
  26228000   245.11066     -419.78143     -337.69068     -419.72947      0              1844.2269      31.128         21.465467      33.554946      22420.645      3704.2105     -232.43787      2060.9083      1753.0033     -2501.6125     -1229.215     
  26230000   241.3396      -417.80712     -336.97934     -417.75397      0              5513.8344      31.128         21.465467      33.606227      22454.91       3566.4591      7410.4896      5564.5544      2076.748      -19.790256     -195.57455    
  26232000   246.50613     -418.33025     -335.77214     -418.27401      0              1658.779       31.128         21.465467      33.528486      22402.965      993.68062      1133.6101      2849.0462     -773.90337      440.7308       1449.7692    
  26234000   241.8276      -416.06921     -335.078       -416.01398      0              2483.857       31.128         21.465467      33.71011       22524.322      1765.1468      3281.7593      2404.6648      234.67403     -285.10656     -464.60349    
  26236000   245.47869     -416.38688     -334.17286     -416.3339       0              4617.7283      31.128         21.465467      33.51935       22396.861      4459.9389      4130.7874      5262.4585     -972.9689      -976.7107       51.394481    
  26238000   239.97794     -417.26803     -336.89629     -417.21508      0              2419.3325      31.128         21.465467      33.600643      22451.179      3209.4373      1179.022       2869.5384     -726.11427     -1931.2794     -1377.048     
  26240000   244.60072     -415.91466     -333.99469     -415.86114      0              3157.2021      31.128         21.465467      33.742474      22545.947      2410.4733      3512.3307      3548.8022     -614.66003      730.50113      732.61822    
  26242000   240.58774     -419.30567     -338.7297      -419.25254      0              2988.424       31.128         21.465467      33.752726      22552.797      3472.5751      2438.1591      3054.5377      517.75151      239.61076      1089.3209    
  26244000   246.60051     -416.60083     -334.01111     -416.5455       0              2634.1453      31.128         21.465467      33.744381      22547.221      2928.4104      1442.0855      3531.9399     -1183.6275     -1258.7747     -876.82812    
  26246000   248.02289     -417.13893     -334.07283     -417.08385      0              2983.905       31.128         21.465467      33.529542      22403.671      3188.3971      4267.826       1495.492       455.36748     -712.83547     -172.79148    
  26248000   240.99716     -416.77401     -336.06092     -416.72276      0              2845.5715      31.128         21.465467      33.680154      22504.306      2612.7482      4006.5735      1917.3928      944.52885     -45.246339      546.79534    
  26250000   244.85812     -415.33248     -333.3263      -415.28711      0              4930.9097      31.128         21.465467      33.57275       22432.541      5076.4126      3424.382       6291.9343      202.22903      212.06035      1343.2537    
  26252000   241.05543     -413.46452     -332.73192     -413.4096       0              2187.1602      31.128         21.465467      33.451903      22351.794      2859.5784      2791.3782      910.52393     -688.25779      1682.5098     -464.07894    
  26254000   243.98708     -417.63914     -335.92468     -417.58643      0              3189.1474      31.128         21.465467      33.544522      22413.68       3504.227       2208.4905      3854.7247      322.77269      172.49937     -468.08626    
  26256000   248.97278     -418.43057     -335.04634     -418.37573      0              2110.167       31.128         21.465467      33.558692      22423.148      2537.6306      2585.0215      1207.8487      540.45038      732.87272     -724.28002    
  26258000   245.42851     -418.82631     -336.6291      -418.77145      0              3047.9532      31.128         21.465467      33.710007      22524.253      2850.4658      3460.5101      2832.8837      16.160067     -2465.5527      677.23189    
  26260000   247.21816     -416.23039     -333.4338      -416.17305      0              3467.9836      31.128         21.465467      33.591444      22445.032      2641.9319      3531.932       4230.0868     -691.73587     -944.50265      179.69181    
  26262000   248.8338      -417.80171     -334.46403     -417.74646      0              3628.9456      31.128         21.465467      33.543444      22412.96       3515.7517      3410.3713      3960.7139     -511.59026      920.86402     -96.513944    
  26264000   243.99611     -417.87836     -336.16088     -417.82365      0              3926.8041      31.128         21.465467      33.556611      22421.758      4623.0053      4140.5995      3016.8074      40.185219     -1428.0011     -633.81867    
  26266000   239.93717     -416.18255     -335.82446     -416.14087      0              2513.6733      31.128         21.465467      33.651285      22485.016      3490.2435      2088.5665      1962.2097     -190.69662     -49.691469      216.55343    
  26268000   248.67081     -415.94587     -332.66277     -415.89074      0              1746.9281      31.128         21.465467      33.593255      22446.242     -134.50347      1903.8849      3471.4031      1327.9106      1685.5665     -216.43858    
  26270000   251.13406     -416.28875     -332.18068     -416.23286      0              2710.618       31.128         21.465467      33.485827      22374.461      1076.6597      3047.5304      4007.6639      144.96528     -1166.427       2065.0965    
  26272000   249.39547     -416.34935     -332.82356     -416.30171      0              2788.2253      31.128         21.465467      33.468554      22362.92       2864.3435      2752.1776      2748.155      -498.94682     -237.02617     -3186.8595    
  26274000   246.75611     -417.95053     -335.30869     -417.89581      0              2553.8027      31.128         21.465467      33.763844      22560.226      1735.2071      4090.2838      1835.9173     -923.50651      235.31238     -10.197729    
  26276000   240.27567     -418.84247     -338.37102     -418.78785      0              1420.1433      31.128         21.465467      33.66981       22497.395     -118.50785      2651.4703      1727.4674      2341.0805     -1121.0804      497.75743    
ERROR on proc 0: Cannot open restart file restart2.lmp.0: Permission denied (../write_restart.cpp:233)
Last command: run             ${nsteps_enhanced_coex_upto} upto
