LAMMPS (23 Jun 2022)
include procedure.lmp
echo both
include		in.partitions
variable        pid world 0
include		in.temp
variable	temperature equal 245
variable        tempDamp equal 0.100 # this is 0.1 ps
include		in.pressure
variable        pressure equal 3039.75
variable        pressureDamp equal 1.0 #this is 1ps

variable	barostat string	   tri
variable	direction string   z
variable	direction_x_bool equal 0
variable	direction_y_bool equal 0
variable	direction_z_bool equal 1

include		in.seed
variable        seed world 745823

units           metal
atom_style	full
box tilt large
read_restart 	restart.lmp.${pid}
read_restart 	restart.lmp.0
Reading restart file ...
  restart file = 23 Jun 2022, LAMMPS = 23 Jun 2022
  restoring atom style full from restart
  triclinic box = (0 0 -0.8469213) to (31.128 21.465467 32.551988) with tilt (-9.18238 0.78720763 -11.214574)
WARNING: Triclinic box skew is large (../domain.cpp:224)
  2 by 1 by 2 MPI processor grid
Summary of lammps deepmd module ...
  >>> Info of deepmd-kit:
  installed to:       /u/sigbjobo/software/DEEPMD_FROM_SOURCE/deepmd-kit/install
  source:             v2.1.3
  source branch:       master
  source commit:      5a32c49
  source commit at:   2022-07-01 09:52:58 +0800
  surpport model ver.:1.1 
  build float prec:   double
  build with tf inc:  /u/sigbjobo/software/DEEPMD_FROM_SOURCE/tensorflow/install/include;/u/sigbjobo/software/DEEPMD_FROM_SOURCE/tensorflow/install/include
  build with tf lib:  /u/sigbjobo/software/DEEPMD_FROM_SOURCE/tensorflow/install/lib/libtensorflow_cc.so;/u/sigbjobo/software/DEEPMD_FROM_SOURCE/tensorflow/install/lib/libtensorflow_framework.so
  set tf intra_op_parallelism_threads: 0
  set tf inter_op_parallelism_threads: 0
  >>> Info of lammps module:
  use deepmd-kit at:  /u/sigbjobo/software/DEEPMD_FROM_SOURCE/deepmd-kit/install
  source:             v2.1.3
  source branch:      master
  source commit:      5a32c49
  source commit at:   2022-07-01 09:52:58 +0800
  build float prec:   double
  build with tf inc:  /u/sigbjobo/software/DEEPMD_FROM_SOURCE/tensorflow/install/include;/u/sigbjobo/software/DEEPMD_FROM_SOURCE/tensorflow/install/include
  build with tf lib:  /u/sigbjobo/software/DEEPMD_FROM_SOURCE/tensorflow/install/lib/libtensorflow_cc.so;/u/sigbjobo/software/DEEPMD_FROM_SOURCE/tensorflow/install/lib/libtensorflow_framework.so
  restoring pair style deepmd from restart
  2592 atoms
Finding 1-2 1-3 1-4 neighbors ...
  special bond factors lj:    0        0        0       
  special bond factors coul:  0        0        0       
     0 = max # of 1-2 neighbors
     0 = max # of 1-3 neighbors
     0 = max # of 1-4 neighbors
     1 = max # of special neighbors
  special bonds CPU = 0.000 seconds
  read_restart CPU = 0.027 seconds
include 	in.setup
variable	out_freq equal 2000
variable	out_freq2 equal 2000

timestep        0.0005

neigh_modify    delay 7 every 1

include         in.deepmd
# This is deepMD model

# create groups ###
#group ox type 2
#group hy type 1

mass 2 15.999
mass 1 1.008

pair_style      deepmd ../graph.pb
pair_coeff      * *

bond_style      none
angle_style     none
dihedral_style  none
improper_style  none
neigh_modify exclude none


neighbor        2.0 bin
neigh_modify    every 50 delay 0 check no

thermo          ${out_freq}
thermo          2000
thermo_style 	custom step temp pe etotal epair emol press lx ly lz vol pxx pyy pzz pxy pxz pyz

restart 	${out_freq} restart.lmp.${pid} restart2.lmp.${pid}
restart 	2000 restart.lmp.${pid} restart2.lmp.${pid}
restart 	2000 restart.lmp.0 restart2.lmp.${pid}
restart 	2000 restart.lmp.0 restart2.lmp.0


timer           timeout 23:50:00 every 1000
New timer settings: style=normal  mode=nosync  timeout=23:50:00


# Set number of time steps
variable 	nsteps_wall		equal	 6000000
variable 	nsteps_enhanced_coex    equal	60000000

variable     nsteps_enhanced_coex_upto equal (${nsteps_wall}+${nsteps_enhanced_coex})
variable     nsteps_enhanced_coex_upto equal (6000000+${nsteps_enhanced_coex})
variable     nsteps_enhanced_coex_upto equal (6000000+60000000)


# Set temperature for first step
if "$(step) < 1  " then    "velocity 	all create ${temperature} ${seed} dist gaussian"


# Always run thermo and barostat


######################################
# Run simulation with wall potential #
######################################
if " $(step) < ${nsteps_wall} " then    "fix             3 all plumed plumedfile plumed.equil.dat outfile plumed.equil.out"   "fix             1 all nph ${direction} ${pressure} ${pressure} ${pressureDamp}"   "fix             2 all temp/csvr ${temperature} ${temperature} ${tempDamp} ${seed}"   "run             ${nsteps_wall} upto"
if " $(step) == ${nsteps_wall} " then    "unfix 3"   "unfix 1"   "unfix 2"


############################
# Run enhanced coesistence #
############################
if "$(step) == ${nsteps_wall}" then    "fix             3 all plumed plumedfile plumed.start.dat outfile plumed.out" else    "fix             3 all plumed plumedfile plumed.dat outfile plumed.out"
fix             3 all plumed plumedfile plumed.dat outfile plumed.out

if "$(step) < ${nsteps_enhanced_coex_upto} && $(step) >= ${nsteps_wall} " then    "include         in.dump"    "fix             1 all nph ${direction} ${pressure} ${pressure} ${pressureDamp}"   "fix             2 all temp/csvr ${temperature} ${temperature} ${tempDamp} ${seed}"   "run             ${nsteps_enhanced_coex_upto} upto"    "unfix 3"   "unfix 1"   "unfix 2"
include         in.dump
dump            myDump all atom ${out_freq2} dump.water.${pid}
dump            myDump all atom 2000 dump.water.${pid}
dump            myDump all atom 2000 dump.water.0
dump            myDump2 all dcd ${out_freq2} dump.${pid}.dcd
dump            myDump2 all dcd 2000 dump.${pid}.dcd
dump            myDump2 all dcd 2000 dump.0.dcd
dump_modify     myDump append yes
dump_modify     myDump2 append yes

fix             1 all nph ${direction} ${pressure} ${pressure} ${pressureDamp}
fix             1 all nph z ${pressure} ${pressure} ${pressureDamp}
fix             1 all nph z 3039.75 ${pressure} ${pressureDamp}
fix             1 all nph z 3039.75 3039.75 ${pressureDamp}
fix             1 all nph z 3039.75 3039.75 1
fix             2 all temp/csvr ${temperature} ${temperature} ${tempDamp} ${seed}
fix             2 all temp/csvr 245 ${temperature} ${tempDamp} ${seed}
fix             2 all temp/csvr 245 245 ${tempDamp} ${seed}
fix             2 all temp/csvr 245 245 0.1 ${seed}
fix             2 all temp/csvr 245 245 0.1 745823
run             ${nsteps_enhanced_coex_upto} upto
run             66000000 upto

CITE-CITE-CITE-CITE-CITE-CITE-CITE-CITE-CITE-CITE-CITE-CITE-CITE

Your simulation uses code contributions which should be cited:

- USER-DEEPMD package:

@article{Wang_ComputPhysCommun_2018_v228_p178,
  author = {Wang, Han and Zhang, Linfeng and Han, Jiequn and E, Weinan},
  doi = {10.1016/j.cpc.2018.03.016},
  url = {https://doi.org/10.1016/j.cpc.2018.03.016},
  year = 2018,
  month = {jul},
  publisher = {Elsevier {BV}},
  volume = 228,
  journal = {Comput. Phys. Commun.},
  title = {{DeePMD-kit: A deep learning package for many-body potential energy representation and molecular dynamics}},
  pages = {178--184}
}

CITE-CITE-CITE-CITE-CITE-CITE-CITE-CITE-CITE-CITE-CITE-CITE-CITE

Generated 0 of 1 mixed pair_coeff terms from geometric mixing rule
Neighbor list info ...
  update every 50 steps, delay 0 steps, check no
  max neighbors/atom: 2000, page size: 100000
  master list distance cutoff = 8
  ghost atom cutoff = 8
  binsize = 4, bins = 11 9 9
  1 neighbor lists, perpetual/occasional/extra = 1 0 0
  (1) pair deepmd, perpetual
      attributes: full, newton on
      pair build: full/bin
      stencil: full/bin/3d
      bin: standard
Per MPI rank memory allocation (min/avg/max) = 6.229 | 6.229 | 6.23 Mbytes
   Step          Temp          PotEng         TotEng         E_pair         E_mol          Press            Lx             Ly             Lz           Volume          Pxx            Pyy            Pzz            Pxy            Pxz            Pyz      
  54765000   244.29105     -416.18086     -334.36461     -416.18086      0              3938.4225      31.128         21.465467      33.39891       22316.385      3268.2244      4781.6527      3765.3904      1480.662      -112.8978       723.26294    
  54766000   249.4401      -417.0467      -333.50596     -417.00038      0              3303.7545      31.128         21.465467      33.317091      22261.716      1065.5905      4101.4314      4744.2415      275.16872     -445.95458     -1343.5774    
  54768000   241.43471     -413.5081      -332.64847     -413.45986      0              2432.0976      31.128         21.465467      33.729024      22536.96       157.23502      3007.2996      4131.7581     -1055.0059      649.23843      988.32306    
  54770000   244.75213     -416.84636     -334.87568     -416.80451      0              2522.4928      31.128         21.465467      33.743427      22546.584      2961.3726      1947.0866      2659.0193      1460.0458      70.087222      1680.287     
  54772000   249.30316     -416.87068     -333.3758      -416.82357      0              1406.8223      31.128         21.465467      33.74941       22550.582      765.64168      2363.7835      1091.0418     -140.72131     -833.39383      446.48729    
  54774000   248.44714     -414.6647      -331.45651     -414.63166      0              831.29243      31.128         21.465467      33.601601      22451.819      2010.8492     -1018.8197      1501.8478      461.63993     -1043.3193      1129.7832    
  54776000   245.73314     -414.636       -332.33677     -414.62445      0              2226.7068      31.128         21.465467      33.638556      22476.512      2960.4129      2895.6988      824.00861     -1355.888       166.88316      855.05612    
  54778000   248.69301     -413.82686     -330.53633     -413.78588      0              1154.0302      31.128         21.465467      33.786931      22575.652      3373.6965     -31.187588      119.58178     -1353.511      -556.45759      782.91901    
  54780000   249.84327     -415.8395      -332.16373     -415.79174      0              2752.507       31.128         21.465467      33.53282       22405.861      3245.8965      1469.1034      3542.5213     -818.72507      694.75411      302.59247    
  54782000   245.00277     -415.72916     -333.67454     -415.68517      0              3140.1703      31.128         21.465467      33.524215      22400.111      833.19903      4274.7226      4312.5894     -320.2146       739.6366       1267.6353    
  54784000   243.5107      -416.62183     -335.06693     -416.57671      0              2898.7389      31.128         21.465467      33.5348        22407.184      1837.314       3473.1244      3385.7784      905.08541      224.01516      922.792      
  54786000   240.07525     -418.89551     -338.49117     -418.84861      0              2853.6363      31.128         21.465467      33.478317      22369.443      3191.6159      3074.8857      2294.4074      1782.5594      178.78147     -630.73752    
  54788000   241.30724     -419.56427     -338.74733     -419.53444      0              2561.0048      31.128         21.465467      33.584688      22440.518      1688.5939      3117.0334      2877.3871     -719.60331      991.43548     -106.12424    
  54790000   248.3163      -414.16861     -331.00424     -414.12582      0              5529.294       31.128         21.465467      33.723193      22533.064      3923.9392      7913.6311      4750.3117     -581.73635     -252.86169     -414.85539    
  54792000   244.0591      -415.10787     -333.36929     -415.06009      0              4103.7397      31.128         21.465467      33.7544        22553.916      4369.4119      4719.0551      3222.7521      783.07702      467.69239      664.78647    
  54794000   249.22        -420.60992     -337.14289     -420.58169      0              1450.3405      31.128         21.465467      33.944347      22680.834      777.39516      2871.8365      701.78982      2424.4106      572.00439      278.99411    
  54796000   253.05415     -415.80142     -331.05029     -415.75489      0              4632.8685      31.128         21.465467      33.660981      22491.495      4256.1179      5352.6415      4289.846       60.733075      392.92641     -983.55421    
  54798000   246.40058     -415.76979     -333.24702     -415.72179      0              5003.1304      31.128         21.465467      33.552793      22419.206      4127.8673      4718.4769      6163.0472      1637.6869      507.94833      493.94444    
  54800000   241.80984     -418.60146     -337.61619     -418.55348      0              4705.5406      31.128         21.465467      33.322205      22265.133      4409.4522      4414.1082      5293.0613     -82.16156      -859.79354     -553.36609    
  54802000   244.10493     -418.07657     -336.32264     -418.0324       0              2164.3726      31.128         21.465467      33.447739      22349.012      2516.3043      2792.6855      1184.1279      133.35042     -536.84009      715.69048    
  54804000   240.78501     -417.4233      -336.78126     -417.39653      0              2931.8293      31.128         21.465467      33.611871      22458.681      3807.762       3031.4108      1956.3151     -125.75238      217.0257      -546.80156    
  54806000   240.49279     -418.71018     -338.16601     -418.67003      0              2207.0137      31.128         21.465467      33.411241      22324.624      1603.7249      1462.9534      3554.3628      980.21362     -532.48354      201.83887    
  54808000   243.46635     -416.03848     -334.49843     -415.99556      0              3475.5307      31.128         21.465467      33.573096      22432.772      2730.876       3947.2785      3748.4378      1452.8833     -2030.7905      623.80426    
  54810000   243.19309     -418.77489     -337.32636     -418.73058      0              4233.2484      31.128         21.465467      33.504486      22386.929      4100.5003      3720.3485      4878.8964     -296.14443     -376.35564     -1324.7479    
  54812000   246.44913     -416.43005     -333.89103     -416.39358      0              3293.4282      31.128         21.465467      33.425046      22333.849      3923.8308      2566.5462      3389.9076      1534.635      -1008.6246      64.998861    
  54814000   249.25337     -415.54687     -332.06866     -415.50121      0              3422.8928      31.128         21.465467      33.629865      22470.704      3844.3744      4740.2732      1684.0307      792.18367      103.19455     -381.64516    
  54816000   246.42885     -413.85374     -331.32151     -413.80781      0              2501.9207      31.128         21.465467      33.580854      22437.957      4038.2191      2167.9663      1299.5767     -355.3447      -1500.7233     -104.9362     
  54818000   244.26947     -417.30042     -335.49139     -417.25256      0              2321.0221      31.128         21.465467      33.532836      22405.872      3547.989       2524.0996      890.97778      485.52575      307.92498      1326.6051    
  54820000   245.80154     -414.94044     -332.6183      -414.91245      0              956.58506      31.128         21.465467      33.507999      22389.276      1554.6086      3144.8118     -1829.6652     -1719.9294     -1026.4428     -1066.9525    
  54822000   236.88005     -416.44723     -337.11301     -416.42774      0              4800.6434      31.128         21.465467      33.452975      22352.511      6066.8861      4365.4484      3969.5957     -1100.7749     -279.34272      460.38625    
  54824000   243.70644     -416.55439     -334.93393     -416.50803      0              1802.702       31.128         21.465467      33.686634      22508.636      1171.3142      1936.9269      2299.8648      788.10806     -132.76875     -1158.9093    
  54826000   239.08046     -416.3494      -336.27824     -416.30792      0              3767.2678      31.128         21.465467      33.567719      22429.18       2765.5883      5138.0378      3398.1773      980.24749      117.0314       570.56792    
  54828000   249.69509     -414.64759     -331.02145     -414.61217      0              2847.8943      31.128         21.465467      33.591583      22445.125      3683.3247      3432.6833      1427.6747      233.24474     -1247.3041      889.23406    
  54830000   237.64407     -418.02998     -338.43989     -417.99884      0              3201.2143      31.128         21.465467      33.631491      22471.791      3038.9075      3737.0453      2827.6901      1674.6036      1383.824       178.64054    
  54832000   246.48304     -416.58444     -334.03406     -416.54487      0              2092.7913      31.128         21.465467      33.55269       22419.138      982.34357      2335.0342      2960.996       691.54948      196.82405     -271.73973    
  54834000   242.73147     -418.91091     -337.61698     -418.86376      0              2846.3115      31.128         21.465467      33.759937      22557.615      4641.675       2715.6921      1181.5674     -1684.6364     -886.16301     -64.920971    
  54836000   237.60637     -417.19561     -337.61814     -417.15236      0              2874.1255      31.128         21.465467      33.480295      22370.765      3816.5132      2791.4988      2014.3646      77.884757     -1522.7096      490.09148    
  54838000   241.87907     -417.68962     -336.68116     -417.66534      0              2216.5354      31.128         21.465467      33.347104      22281.77       3052.3758      1959.2472      1637.9832     -1008.7176     -1022.9072     -1899.4431    
  54840000   243.0653      -415.22951     -333.82378     -415.18954      0              2228.4226      31.128         21.465467      33.331819      22271.557      467.44408      3020.3946      3197.429      -149.01284     -780.11253      588.92681    
  54842000   237.22331     -418.03852     -338.58934     -418.02641      0              1782.1604      31.128         21.465467      33.497547      22382.292      884.0704       2015.7839      2446.6269     -301.73157      1785.8581     -826.17266    
  54844000   236.60965     -417.70923     -338.46557     -417.69539      0              4655.5913      31.128         21.465467      33.492296      22378.784      3560.8521      4625.6683      5780.2534      311.64441      867.87139      873.70659    
  54846000   237.98        -415.96779     -336.26519     -415.9532       0              2777.9693      31.128         21.465467      33.482033      22371.927      1273.8156      3572.8765      3487.2157      454.8375      -980.41294     -343.16642    
  54848000   253.36881     -418.84638     -333.98986     -418.8405       0              3352.0683      31.128         21.465467      33.413408      22326.073      2856.7764      3182.2327      4017.1959     -41.940236      591.39408      976.9336     
  54850000   247.33122     -417.9252      -335.09075     -417.91826      0              3564.7868      31.128         21.465467      33.335537      22274.041      2437.1424      2620.0036      5637.2146      626.36291      52.3227        252.80109    
  54852000   245.03053     -417.17696     -335.11304     -417.17208      0              4447.7742      31.128         21.465467      33.486754      22375.081      6051.1523      4715.7644      2576.4061      1238.9398     -1425.6899     -476.47038    
  54854000   241.04155     -421.13155     -340.40359     -421.13543      0              681.03142      31.128         21.465467      33.302975      22252.284     -1147.6639      2451.5788      739.17936      1355.474       815.64785     -137.45726    
  54856000   244.7598      -417.63021     -335.65696     -417.62315      0              2476.5024      31.128         21.465467      33.255062      22220.269      2408.4176      2187.0497      2834.0398      592.90114      899.26285     -101.16957    
  54858000   243.4147      -415.97333     -334.45058     -415.96758      0              2953.5285      31.128         21.465467      33.242525      22211.892      2785.3458      4639.197       1436.0426     -605.81268      242.49278     -1165.9822    
  54860000   247.2098      -420.72497     -337.93119     -420.72014      0              3173.9726      31.128         21.465467      33.336594      22274.747      4143.4495      1327.0422      4051.4261     -239.3126       788.86951      1752.6601    
  54862000   244.72774     -418.951       -336.98849     -418.94457      0              2136.7894      31.128         21.465467      33.373739      22299.567      2203.0913      112.5068       4094.7701      1365.2096      56.762888     -699.79656    
  54864000   239.76893     -416.33933     -336.03759     -416.33456      0              3215.8845      31.128         21.465467      33.294362      22246.529      2837.7471      4522.1089      2287.7975     -1631.5776      644.57995      1454.0298    
  54866000   243.74029     -418.20051     -336.56871     -418.1957       0              3947.1249      31.128         21.465467      33.127036      22134.725      4801.5417      1644.1309      5395.7022      2390.1596     -633.61563     -1542.247     
  54868000   245.99408     -419.53316     -337.14653     -419.52786      0              2816.497       31.128         21.465467      33.207561      22188.53       3094.5004      3934.7499      1420.2406     -279.43009      823.73484     -1511.7763    
  54870000   236.87974     -414.42305     -335.08894     -414.41378      0              3852.2822      31.128         21.465467      33.339945      22276.986      3267.0211      2981.2238      5308.6016      163.72199     -451.55598     -388.48997    
  54872000   244.33565     -417.48367     -335.65247     -417.48791      0              2249.8961      31.128         21.465467      33.482602      22372.307      1400.2384      1943.3581      3406.0918      385.997       -661.48487      867.33509    
  54874000   250.39686     -418.37466     -334.51349     -418.3684       0              4932.6191      31.128         21.465467      33.518867      22396.538      5819.0397      3223.5791      5755.2384      63.971962      1656.7429     -776.13519    
  54876000   244.56966     -418.00677     -336.0972      -418.00187      0              3112.8081      31.128         21.465467      33.444873      22347.097      2828.0128      2650.5162      3859.8954      1520.8436     -685.72288     -763.58394    
  54878000   240.92973     -417.23875     -336.54824     -417.2342       0              3509.9976      31.128         21.465467      33.517876      22395.876      1401.6601      2555.3657      6572.9669      1058.5098      1159.5986     -805.32105    
  54880000   245.66752     -416.86052     -334.58327     -416.85574      0              2611.196       31.128         21.465467      33.372254      22298.575      200.2662       4915.6358      2717.6859      2283.8386      384.31285     -729.42145    
  54882000   241.34847     -419.71705     -338.8863      -419.71287      0              4370.0403      31.128         21.465467      33.389661      22310.205      4844.1793      4120.9571      4144.9845      1839.1281      104.71511     -86.422434    
  54884000   253.51038     -420.49605     -335.59212     -420.49142      0              3744.918       31.128         21.465467      33.365072      22293.776      2601.075       4083.6751      4550.0039      483.09772      1007.8543     -1359.4675    
  54886000   247.33823     -420.86329     -338.0265      -420.85754      0              2344.3707      31.128         21.465467      33.463984      22359.866      1291.0466      1153.9905      4588.0751      1390.1622     -212.46543      409.93409    
  54888000   241.83195     -419.70187     -338.70919     -419.69673      0              972.25012      31.128         21.465467      33.54446       22413.639     -1350.8852      2694.5617      1573.0739     -536.77298     -793.15437      240.67815    
  54890000   249.82968     -416.2695      -332.59828     -416.26471      0              5267.5644      31.128         21.465467      33.210343      22190.389      4565.4093      3799.9975      7437.2865      305.68799      1832.8593      306.41221    
  54892000   239.97152     -417.2496      -336.88001     -417.24447      0              4880.4667      31.128         21.465467      33.302751      22252.134      3084.3445      5766.3832      5790.6723      1328.3717      765.66288     -613.00388    
  54894000   244.78794     -417.49439     -335.51172     -417.48678      0              3887.2057      31.128         21.465467      33.55028       22417.528      3693.3867      5027.1031      2941.1272      492.34778      7.4857684     -512.76929    
  54896000   240.51797     -420.18024     -339.62764     -420.17451      0              1292.0521      31.128         21.465467      33.526715      22401.782     -159.24559      2317.1065      1718.2953      1114.1478      881.10093     -160.87312    
  54898000   246.83158     -416.73554     -334.06843     -416.72929      0              4136.7119      31.128         21.465467      33.531836      22405.203      2807.8543      3958.1798      5644.1016      665.57229      1519.8711     -1429.4492    
  54900000   243.82006     -419.69071     -338.03219     -419.68431      0              2465.4857      31.128         21.465467      33.556952      22421.985      3035.0789      3628.6428      732.73536      517.06946      1084.6717     -398.11638    
  54902000   249.98559     -419.67534     -335.95191     -419.66988      0              3327.1553      31.128         21.465467      33.489334      22376.804      2025.0516      4795.3823      3161.0321      1808.3012      561.24551      93.912125    
  54904000   241.08099     -422.11984     -341.37867     -422.1145       0              1448.775       31.128         21.465467      33.322049      22265.029      1197.9501      1373.38        1774.9948     -2113.0702      41.152134      583.35039    
  54906000   248.76738     -420.06078     -336.74534     -420.05602      0              3765.0602      31.128         21.465467      33.442779      22345.698      3862.789       4061.2911      3371.1004     -771.90335     -529.50429     -208.4263     
  54908000   247.61765     -418.77407     -335.84369     -418.75942      0              1942.2168      31.128         21.465467      33.562628      22425.778      2975.9298      1850.0237      1000.697       949.08491      167.56463      61.380362    
  54910000   245.69505     -418.39045     -336.10397     -418.3813       0              3272.7218      31.128         21.465467      33.515962      22394.597      2477.0574      5520.9399      1820.1681     -82.445277      333.89249     -720.34113    
  54912000   237.72477     -416.02656     -336.40944     -416.01959      0              4712.927       31.128         21.465467      33.572123      22432.122      4731.1477      4549.5213      4858.1121      486.58386      246.83333      769.28426    
  54914000   247.7315      -413.90063     -330.93212     -413.87528      0              3158.6718      31.128         21.465467      33.551493      22418.338      1059.2916      4050.8092      4365.9146      1477.6841     -100.36316     -472.93815    
  54916000   248.72043     -417.41332     -334.11361     -417.39018      0              1724.4717      31.128         21.465467      33.831112      22605.173      114.63143      2168.2961      2890.4875      487.65025      688.10405      357.59789    
  54918000   235.67064     -414.47879     -335.54962     -414.46501      0              2678.9024      31.128         21.465467      33.589279      22443.586      2581.427       2787.359       2667.9213      699.51752      1170.0356      608.30055    
  54920000   242.26433     -415.68654     -334.54906     -415.67601      0              2656.4832      31.128         21.465467      33.62242       22465.73       3458.8075      1373.4374      3137.2046     -350.06892     -202.97451     -511.47672    
  54922000   241.97601     -418.54801     -337.50708     -418.54325      0              2725.9231      31.128         21.465467      33.407649      22322.225      2349.9971      3882.9519      1944.8204      1691.0474      745.48039      1157.1261    
  54924000   243.56196     -415.42        -333.84793     -415.39243      0              24.27406       31.128         21.465467      33.664317      22493.724      1959.8661      331.59698     -2218.6409     -449.84478      2302.0617      922.98454    
  54926000   242.72345     -418.56541     -337.27416     -418.55414      0              3736.2666      31.128         21.465467      33.588216      22442.875      3991.1441      5864.8023      1352.8532      414.81965     -1279.9166     -258.03682    
  54928000   243.15177     -418.149       -336.7143      -418.1395       0              3360.131       31.128         21.465467      33.744435      22547.257      4479.7354      2247.3638      3353.2938     -55.335005     -298.46491      182.22885    
  54930000   249.58427     -417.84099     -334.25196     -417.83373      0              3098.1062      31.128         21.465467      33.613117      22459.514      3780.3898      2124.338       3389.5909      281.80907     -215.77495      289.89603    
  54932000   235.58453     -418.60996     -339.70963     -418.5967       0              4008.4471      31.128         21.465467      33.770286      22564.53       3734.591       4695.3667      3595.3837      897.68167     -1262.3068      346.68947    
  54934000   241.09525     -416.24573     -335.49978     -416.22122      0              3441.7854      31.128         21.465467      33.514572      22393.668      3786.0817      1989.2416      4550.0327     -326.40692     -597.10472     -2765.8655    
  54936000   240.68876     -417.59716     -336.98736     -417.56889      0              2002.8136      31.128         21.465467      33.521719      22398.443      434.39339      3148.3287      2425.7187     -792.63536      3028.4843      1224.1069    
  54938000   247.0205      -416.92428     -334.19389     -416.90598      0              1808.9463      31.128         21.465467      33.554835      22420.571      1919.5031      2652.0886      855.24709      1192.1969     -1330.4543     -613.68198    
  54940000   243.78883     -416.83312     -335.18507     -416.82159      0              3114.0409      31.128         21.465467      33.527151      22402.073      3787.8824      2311.6715      3242.5689      552.65542      661.48073     -369.8473     
  54942000   240.04636     -416.23943     -335.84478     -416.22594      0              3267.786       31.128         21.465467      33.53778       22409.175      4218.1692      2501.7113      3083.4775      981.90547     -1800.183      -412.89355    
  54944000   239.61718     -417.05587     -336.80495     -417.03489      0              2545.3053      31.128         21.465467      33.584045      22440.089      1750.9514      2702.8394      3182.1251      145.08364      540.19932     -42.41213     
  54946000   244.03138     -418.4763      -336.74701     -418.45585      0              4373.6903      31.128         21.465467      33.459942      22357.165      5072.43        3276.6925      4771.9483     -435.46589      241.17709     -962.95781    
  54948000   246.15147     -415.74009     -333.30076     -415.7067       0              3563.3477      31.128         21.465467      33.523766      22399.811      3384.0393      3943.1843      3362.8195      762.76159     -91.965792      881.22058    
  54950000   239.27216     -416.93616     -336.80079     -416.92342      0              2961.3594      31.128         21.465467      33.55145       22418.309      2005.742       2841.0037      4037.3325     -591.12666      199.0082       685.92886    
  54952000   243.93992     -417.77909     -336.08043     -417.76917      0              1790.9403      31.128         21.465467      33.490434      22377.54       2397.2866      928.80618      2046.7281     -392.23649      2419.079      -482.04762    
  54954000   242.69437     -418.55611     -337.2746      -418.54619      0              5882.8334      31.128         21.465467      33.23749       22208.528      6330.7942      5173.3181      6144.3879     -297.24706      1437.6456     -489.65991    
  54956000   247.86779     -415.16858     -332.15442     -415.15957      0              4154.7757      31.128         21.465467      33.487117      22375.324      4605.9817      4284.9386      3573.4069      89.722394     -1545.0945     -51.397072    
  54958000   247.96228     -416.43036     -333.38456     -416.41657      0              4632.1019      31.128         21.465467      33.530171      22404.091      4666.7703      5002.4275      4227.108       685.00267      1151.9984     -401.87055    
  54960000   243.61564     -415.69826     -334.10821     -415.67893      0              2965.3752      31.128         21.465467      33.513008      22392.623      3510.8739      3346.6944      2038.5573      391.27951     -373.46072     -893.54454    
  54962000   247.06016     -416.00557     -333.2619      -415.99361      0              2804.8715      31.128         21.465467      33.371653      22298.173      2996.9738      3562.7132      1854.9274      1531.9393     -108.66254      256.03218    
  54964000   245.79288     -415.3278      -333.00856     -415.31463      0              2681.2922      31.128         21.465467      33.512763      22392.459      1843.846       1704.2498      4495.7807     -183.5466      -2.4997771     -45.030251    
  54966000   246.60695     -417.16579     -334.57391     -417.16039      0              1663.3783      31.128         21.465467      33.191099      22177.531      306.42103      1275.183       3408.5307      288.74019     -5.3325079      867.23239    
  54968000   239.93254     -420.75993     -340.4034      -420.75504      0              4033.5921      31.128         21.465467      33.356446      22288.012      5566.2198      2330.4918      4204.0648     -936.601       -12.304149      1432.4038    
  54970000   237.05142     -417.77896     -338.38735     -417.77195      0              2928.6222      31.128         21.465467      33.332727      22272.164      3816.8192      2263.8555      2705.1921     -1109.9234     -268.71009      290.70618    
  54972000   247.41184     -417.14391     -334.28246     -417.13752      0              3550.8438      31.128         21.465467      33.438338      22342.73       4151.1005      2368.1023      4133.3285     -737.29825      75.980263     -519.07984    
  54974000   245.00655     -417.02796     -334.97208     -417.02311      0              4216.3096      31.128         21.465467      33.324242      22266.494      5786.2066      3757.404       3105.3181      570.57805     -2564.9338     -670.80492    
  54976000   247.71545     -417.28352     -334.32038     -417.27622      0              3282.3838      31.128         21.465467      33.409597      22323.526      3705.9245      2813.7192      3327.5077      309.36667     -519.54155      393.02264    
  54978000   245.67596     -416.07451     -333.79443     -416.05715      0              3100.5259      31.128         21.465467      33.459738      22357.029      3671.6837      3229.2022      2400.6916     -399.59616      238.59443      753.52519    
  54980000   237.67436     -418.9281      -339.32786     -418.92015      0              3417.4181      31.128         21.465467      33.246788      22214.741      3114.3219      4053.4348      3084.4976      597.44644     -1465.0014     -1411.4261    
  54982000   248.37403     -416.98032     -333.79661     -416.96633      0              2392.8931      31.128         21.465467      33.587398      22442.329      4771.0981      1694.1167      713.46464      588.38536      418.83433     -657.4826     
  54984000   242.17385     -416.00701     -334.89983     -415.99827      0              1838.8509      31.128         21.465467      33.442895      22345.775      2935.4211      1583.1967      997.93483      116.52657      66.664659     -505.47207    
  54986000   246.16472     -417.70777     -335.264       -417.70307      0              2472.6504      31.128         21.465467      33.176436      22167.733      2070.5543      2465.611       2881.7859      1594.9524     -327.52422      1069.4642    
  54988000   244.37448     -415.67751     -333.83331     -415.66689      0              2463.6811      31.128         21.465467      33.369263      22296.576      1065.0942      2725.8678      3600.0815     -494.57522      1486.9451     -1549.2163    
  54990000   242.13655     -415.33226     -334.23758     -415.32498      0              4085.1865      31.128         21.465467      33.45693       22355.153      3992.6375      3926.3312      4336.5908     -562.35209      27.825148      46.844207    
  54992000   244.55136     -415.78363     -333.88019     -415.75699      0              4243.1931      31.128         21.465467      33.447257      22348.689      2895.4019      4146.0902      5688.0872      1047.3146      148.43893      141.53472    
  54994000   249.36671     -418.47714     -334.96098     -418.47163      0              4859.1103      31.128         21.465467      33.568345      22429.598      4573.6242      4912.8658      5090.8408     -1558.828       231.52586      1186.8886    
  54996000   249.65606     -416.86787     -333.2548      -416.85892      0              4940.8067      31.128         21.465467      33.39408       22313.158      4608.567       5120.6699      5093.1833     -963.6294      -301.31081     -53.096064    
  54998000   244.10875     -416.53997     -334.78476     -416.53023      0              111.0471       31.128         21.465467      33.545021      22414.013      1188.6573      682.69277     -1538.2088     -1195.1207     -1087.7382      288.40917    
  55000000   238.73589     -417.25539     -337.29963     -417.23364      0              2270.0284      31.128         21.465467      33.69783       22516.117      2746.0825      1921.1258      2142.8769      1797.2886     -1444.3428      362.85122    
  55002000   241.98698     -417.86825     -336.82365     -417.85865      0              2765.1088      31.128         21.465467      33.55685       22421.918      2272.7638      3952.1572      2070.4054     -458.22104      1280.7948      369.13354    
  55004000   241.63564     -417.99011     -337.06318     -417.9828       0              3655.0301      31.128         21.465467      33.622838      22466.009      3254.8195      3379.6323      4330.6386      296.23675     -1688.6414      781.17711    
  55006000   243.03403     -415.38103     -333.98576     -415.35723      0              1823.2968      31.128         21.465467      33.56221       22425.499      2201.1152      2986.893       281.88205     -206.74977      428.28875      1350.4225    
  55008000   249.11832     -415.65425     -332.22127     -415.62412      0              3677.4246      31.128         21.465467      33.600778      22451.269      4728.0215      1182.1699      5122.0822     -779.0738       731.54473      1271.3686    
  55010000   253.28746     -415.94958     -331.1203      -415.94071      0              2015.9753      31.128         21.465467      33.495897      22381.19       3125.1245      18.975642      2903.8258      818.44494      64.94496       591.25473    
  55012000   247.95358     -417.04905     -334.00616     -417.03832      0              5225.0458      31.128         21.465467      33.317742      22262.151      4572.0098      5085.1089      6018.0186      626.81247     -244.3406       18.234182    
  55014000   240.77924     -417.19201     -336.5519      -417.1871       0              3567.6876      31.128         21.465467      33.149225      22149.551      4110.1974      1940.3153      4652.5501     -1182.1579     -1027.6917      556.64632    
  55016000   248.4271      -414.37353     -331.17206     -414.3618       0              1792.5504      31.128         21.465467      33.540711      22411.133      1491.8896      1583.2358      2302.5257      266.99317      804.30883     -49.697492    
  55018000   244.86076     -416.79561     -334.78855     -416.7741       0              2628.1785      31.128         21.465467      33.320502      22263.995      1751.1498      3033.7923      3099.5934     -598.19125      837.88477     -100.22279    
  55020000   246.30422     -415.35696     -332.86647     -415.32954      0              1600.6096      31.128         21.465467      33.431088      22337.886      3036.6029      1632.2419      132.98386      1532.21       -1013.9524     -941.27392    
  55022000   246.94483     -416.725       -334.01996     -416.71192      0              5377.7098      31.128         21.465467      33.433026      22339.181      5484.3909      5900.1016      4748.637       190.96969      678.95199     -24.374182    
  55024000   242.5084      -418.09477     -336.87554     -418.07439      0              3274.183       31.128         21.465467      33.620361      22464.354      2654.5692      3451.1837      3716.796       940.49296      368.77365     -744.81131    
  55026000   243.7678      -417.90045     -336.25944     -417.89589      0              2321.1917      31.128         21.465467      33.405121      22320.535      2460.8653      2598.134       1904.5756      395.3847       808.87273     -448.93667    
  55028000   250.04486     -414.42434     -330.68106     -414.40624      0              1768.7912      31.128         21.465467      33.609769      22457.277      3808.5938     -1055.235       2553.0147      2085.5738     -760.64977     -601.80363    
  55030000   245.24005     -417.05137     -334.91728     -417.01837      0              3278.8507      31.128         21.465467      33.501714      22385.077      2368.1306      4072.6581      3395.7634     -1192.9092     -588.16172      260.54117    
  55032000   250.6802      -415.62287     -331.6668      -415.60195      0              1718.2124      31.128         21.465467      33.379218      22303.228      2738.1672      2586.5841     -170.1139      -880.62333      765.66697      180.65634    
  55034000   240.09467     -417.35428     -336.94344     -417.32848      0              2537.5432      31.128         21.465467      33.527027      22401.99       3162.3927      2237.4362      2212.8008      690.62866     -617.60683      1308.3151    
  55036000   242.3096      -418.3577      -337.20506     -418.3195       0              2740.7843      31.128         21.465467      33.624273      22466.968      4511.6849      1691.4703      2019.1976      605.54358     -258.12474     -375.13447    
  55038000   244.89177     -414.69935     -332.6819      -414.6806       0              2977.4851      31.128         21.465467      33.524791      22400.497      2591.4321      3717.408       2623.6151     -701.16346     -2015.7673     -126.29981    
  55040000   247.40132     -415.23545     -332.37753     -415.20491      0              3986.4678      31.128         21.465467      33.454273      22353.378      3394.1609      5089.1231      3476.1195     -1373.1057     -516.0898      -1166.1359    
  55042000   241.94455     -414.3725      -333.34211     -414.33028      0              3251.0793      31.128         21.465467      33.486857      22375.15       3892.2001      3685.9973      2175.0405     -232.21792     -688.22251     -1015.617     
  55044000   246.20651     -413.80907     -331.3513      -413.76137      0              4161.0666      31.128         21.465467      33.438005      22342.508      3780.9615      3557.3421      5144.8962      1006.0461     -960.08927     -328.05851    
  55046000   242.19063     -414.28591     -333.17312     -414.25421      0              2281.9021      31.128         21.465467      33.50298       22385.922      1114.5117      2666.1833      3065.0114      100.91452     -801.38047      1017.4672    
  55048000   245.34277     -415.22285     -333.05436     -415.18942      0              3296.7218      31.128         21.465467      33.646396      22481.75       3530.3118      4244.5633      2115.2904     -1230.4501      1132.6071     -448.81478    
  55050000   239.28322     -413.60311     -333.46404     -413.57912      0              3433.5525      31.128         21.465467      33.405934      22321.079      3894.3885      2959.221       3447.0479     -599.6678      -408.59231     -164.30176    
  55052000   246.38062     -418.18805     -335.67197     -418.16662      0              1913.1962      31.128         21.465467      33.455739      22354.358      3256.0921      1047.6113      1435.8851      5.815521       306.78762      206.59584    
  55054000   246.00058     -414.51079     -332.12199     -414.48075      0              4066.1136      31.128         21.465467      33.064172      22092.721      4916.6056      3905.6225      3376.1126      455.17586      62.983134     -1671.3803    
  55056000   247.52822     -413.51298     -330.61255     -413.48254      0              1795.3107      31.128         21.465467      33.42858       22336.21       986.84644      2059.8846      2339.2011      0.33002713    -1235.4824     -631.15509    
  55058000   251.19501     -419.43818     -335.3097      -419.41094      0              1882.1489      31.128         21.465467      33.298749      22249.46       1972.9085      690.36287      2983.1753     -875.34632      712.01144     -970.34204    
  55060000   250.19823     -413.83881     -330.04416     -413.81212      0              3270.1218      31.128         21.465467      33.409293      22323.323      2876.3913      2431.9842      4501.99        1737.3646     -766.79576      381.58124    
  55062000   248.1694      -418.25227     -335.1371      -418.22288      0              1744.6689      31.128         21.465467      33.472099      22365.288      493.01654      3188.6255      1552.3647     -1418.786       101.39709      123.13718    
  55064000   236.77152     -413.74587     -334.448       -413.7228       0              1948.9715      31.128         21.465467      33.300955      22250.934      738.92441      2313.0632      2794.9269      1700.0476      394.53353      988.90055    
  55066000   245.11706     -414.74639     -332.65349     -414.71478      0              3744.3118      31.128         21.465467      33.394623      22313.521      4451.1348      2626.4567      4155.3441     -1060.7232      787.89113     -953.95891    
  55068000   237.89491     -413.11706     -333.44296     -413.06928      0              2856.1503      31.128         21.465467      33.29679       22248.151      2679.9979      2360.4862      3527.9667      645.60625     -2247.303      -112.83628    
  55070000   244.21379     -414.5232      -332.73282     -414.48772      0              4129.6962      31.128         21.465467      33.367534      22295.421      3838.6163      3414.2493      5136.2231     -881.59625      861.36029      196.47088    
  55072000   243.26301     -413.72114     -332.24919     -413.67942      0              1979.5939      31.128         21.465467      33.403997      22319.785      1494.5176      3583.507       860.75709     -91.157554     -1477.5258      496.27523    
  55074000   245.39052     -414.90718     -332.72269     -414.88106      0              2210.9292      31.128         21.465467      33.246606      22214.619      719.12465      3515.5351      2398.1278      669.75084      338.15615     -651.81347    
  55076000   251.473       -415.65713     -331.43554     -415.61164      0              4326.1918      31.128         21.465467      33.196775      22181.324      5529.6781      4933.0983      2515.799      -492.99514     -560.41491      143.08795    
  55078000   237.38458     -413.81033     -334.30714     -413.78354      0              3148.8354      31.128         21.465467      33.493159      22379.36       3550.5518      4069.4168      1826.5374      421.51622     -833.19402     -587.59401    
  55080000   244.77704     -415.83787     -333.85885     -415.8145       0              2673.3034      31.128         21.465467      33.620514      22464.456      1979.956       4292.783       1747.1713      681.82397      615.21935     -1782.6027    
  55082000   239.29018     -414.67912     -334.53772     -414.65364      0              2579.6735      31.128         21.465467      33.494967      22380.569      2347.0608      2286.1825      3105.7772      933.9407       83.74412      -791.53416    
  55084000   251.79347     -415.53558     -331.20666     -415.49958      0              4028.3218      31.128         21.465467      33.446711      22348.325      5852.5585      2500.5625      3731.8443      617.34739     -1080.414      -1527.1912    
  55086000   244.49198     -416.96453     -335.08098     -416.95517      0              4646.757       31.128         21.465467      33.212201      22191.631      5265.8399      6041.556       2632.8752      56.739103     -1556.3061     -53.211457    
  55088000   240.97434     -412.90325     -332.1978      -412.8801       0              4602.8241      31.128         21.465467      33.301046      22250.995      2506.8959      6484.2504      4817.326       196.86385      27.687916     -1389.7377    
  55090000   247.35219     -413.41673     -330.57526     -413.3695       0              3789.0523      31.128         21.465467      33.297465      22248.602      5703.2142      2525.9228      3138.02       -6.1992608      512.46265      227.55218    
  55092000   242.87705     -415.01377     -333.67108     -414.99655      0              1448.2742      31.128         21.465467      33.407736      22322.283      1477.6044      1671.6045      1195.6136      1440.7767     -2.8744948     -82.52022     
  55094000   243.97693     -415.40661     -333.69555     -415.38855      0              5484.4004      31.128         21.465467      33.177704      22168.581      3508.3461      5794.9477      7149.9076      49.640432      1005.0242      238.18564    
  55096000   246.83868     -416.39977     -333.73027     -416.37876      0              3170.8995      31.128         21.465467      33.171009      22164.107      3938.3441      3505.0712      2069.2833     -1390.3447      1062.8054      438.41297    
  55098000   250.77134     -415.29317     -331.30658     -415.26822      0              2838.4754      31.128         21.465467      33.225356      22200.421      1914.556       3372.9683      3227.902       2021.2491      871.87936     -773.55044    
  55100000   246.14796     -419.08902     -336.65086     -419.06926      0              6097.9437      31.128         21.465467      33.090425      22110.263      6071.4005      5604.3865      6618.044      -87.228316      23.484285     -383.20246    
  55102000   242.72021     -413.05261     -331.76245     -413.00503      0              3790.761       31.128         21.465467      33.223533      22199.203      3887.9729      4374.4932      3109.8169      1205.4008     -271.65287     -2261.176     
  55104000   245.09786     -413.5709      -331.48443     -413.54796      0              1484.6536      31.128         21.465467      33.257199      22221.697      828.96495      2523.4825      1101.5132      1012.8582     -716.13904     -231.25965    
  55106000   243.07842     -413.63571     -332.22557     -413.61257      0              2875.3977      31.128         21.465467      33.135789      22140.574      2233.3261      3298.1929      3094.6739      78.73117      -85.952232     -420.84151    
  55108000   246.88703     -416.52585     -333.84017     -416.48224      0              4429.4422      31.128         21.465467      33.377661      22302.187      5482.3957      3773.2479      4032.6829     -796.12855      282.319       -374.75326    
  55110000   244.7544      -415.09849     -333.12705     -415.07311      0              1844.0245      31.128         21.465467      33.285348      22240.506      1514.3445      896.82799      3120.9009      1568.1311     -168.68537      1950.0607    
  55112000   238.81403     -413.50022     -333.51829     -413.48055      0              2393.973       31.128         21.465467      33.093507      22112.322      1043.2591      2317.0828      3821.5772     -1193.6278      420.46767      199.35604    
  55114000   245.84139     -416.87402     -334.53853     -416.85908      0              3202.9744      31.128         21.465467      33.080181      22103.418      3634.8354      3284.1151      2689.9728      1500.2747      1300.9797      831.44063    
  55116000   249.33481     -416.63836     -333.13288     -416.60308      0              2712.8345      31.128         21.465467      33.176649      22167.875      2927.5724      2668.0082      2542.9229     -348.65293      991.79179     -59.521862    
  55118000   243.24978     -418.93711     -337.46959     -418.92624      0              4741.7343      31.128         21.465467      33.153239      22152.234      4220.1658      3507.9269      6497.1103      16.644521      205.70905      488.0813     
  55120000   247.26822     -415.55206     -332.73871     -415.53329      0              1503.0505      31.128         21.465467      33.27378       22232.776      1886.2851      2549.5683      73.298039      1583.04        597.74826      1360.4781    
  55122000   247.12925     -416.81327     -334.04646     -416.78978      0              2248.6526      31.128         21.465467      33.357066      22288.426      685.74424      3128.0724      2932.1412     -337.90948      553.42084     -504.75288    
  55124000   247.26024     -416.56045     -333.74977     -416.54579      0              2228.7117      31.128         21.465467      33.192291      22178.327      2792.1642      1387.8217      2506.1491      894.95758      254.66989      1072.9153    
  55126000   244.73726     -415.79882     -333.83312     -415.7783       0              2879.6361      31.128         21.465467      33.261123      22224.32       1411.92        3179.1654      4047.8231     -1695.4534     -791.58986      236.16675    
  55128000   240.51615     -414.26594     -333.71395     -414.24025      0              2115.4614      31.128         21.465467      33.320745      22264.157      1292.5766      1521.252       3532.5555      1813.6675      697.84102      1507.2862    
  55130000   250.66059     -416.42626     -332.47676     -416.40835      0              4398.2549      31.128         21.465467      33.259261      22223.075      5432.1809      4296.2122      3466.3717      1897.3366     -521.17717     -717.71603    
  55132000   239.92395     -415.94175     -335.58809     -415.93389      0              2989.3063      31.128         21.465467      33.273259      22232.428      2796.3815      2736.3343      3435.2032     -383.40076      555.77275     -352.91046    
  55134000   241.99391     -414.58503     -333.53811     -414.56171      0              4393.6014      31.128         21.465467      33.236279      22207.719      949.45699      5259.5707      6971.7765      771.62836      403.20338      381.60814    
  55136000   243.17865     -418.2174      -336.7737      -418.1941       0              2315.5822      31.128         21.465467      33.207356      22188.394      1784.9596      2993.9776      2167.8095     -6.0016992     -736.84048      1518.9133    
  55138000   243.18457     -419.99374     -338.54806     -419.98587      0              2524.2832      31.128         21.465467      33.158786      22155.94       1974.1288      2276.5256      3322.1953      1019.0588     -698.28297      1301.1088    
  55140000   244.90443     -415.16201     -333.14032     -415.1351       0              2664.4955      31.128         21.465467      33.255817      22220.774      1208.8281      1877.9092      4906.7492      290.93923      1014.9202     -246.99787    
  55142000   242.44483     -417.67547     -336.47754     -417.65528      0              2735.3979      31.128         21.465467      33.292948      22245.584      2113.5604      3441.0264      2651.6069     -113.48546     -1616.2935      911.65932    
  55144000   244.42264     -416.90812     -335.04779     -416.88685      0              2927.6895      31.128         21.465467      33.279998      22236.931      2793.0143      1549.5772      4440.477       1735.2328     -40.827934      246.06737    
  55146000   246.77973     -417.62385     -334.97411     -417.60158      0              4650.1224      31.128         21.465467      33.300445      22250.593      4418.3187      4229.0011      5303.0476      1432.3623      1394.3215      62.074115    
  55148000   256.09296     -418.23669     -332.46781     -418.22097      0              1622.5655      31.128         21.465467      33.243262      22212.385      2157.9195      647.07771      2062.6992     -1128.3953      1182.1328      676.91295    
  55150000   245.3946      -420.64556     -338.45971     -420.63242      0              1794.517       31.128         21.465467      33.241948      22211.507      916.97065      1283.915       3182.6654      332.03287      1148.3548     -165.60699    
  55152000   249.60607     -418.73866     -335.14233     -418.71128      0              3700.472       31.128         21.465467      33.41037       22324.043      3710.561       4303.4515      3087.4036      147.86289      501.52321     -702.70155    
  55154000   239.51906     -418.29271     -338.07466     -418.25621      0              4348.992       31.128         21.465467      33.475543      22367.59       5036.4         4479.4888      3531.0873      875.34649      778.14816     -624.80155    
  55156000   244.35334     -417.23009     -335.39298     -417.20382      0              3275.5303      31.128         21.465467      33.440231      22343.995      1560.5174      3949.6584      4316.415       17.777142      788.48831     -489.08513    
  55158000   246.35998     -416.53082     -334.02165     -416.50262      0              3754.1499      31.128         21.465467      33.509482      22390.267      5040.5666      4185.5708      2036.3121      1219.8461     -309.54201      513.11166    
  55160000   246.96113     -418.68176     -335.97126     -418.66526      0              1002.0988      31.128         21.465467      33.522772      22399.147      1248.8568      2484.9828     -727.54324     -645.99744      1883.7162     -1896.9881    
  55162000   245.59581     -419.23852     -336.98528     -419.2105       0              3052.6606      31.128         21.465467      33.430947      22337.792      3383.4751      2825.5809      2948.9259     -837.52337      139.35709     -1775.794     
  55164000   240.34378     -420.73495     -340.24068     -420.71693      0              3937.1861      31.128         21.465467      33.530366      22404.221      3578.8725      5587.7931      2644.8928     -615.50261      315.05158     -241.86155    
  55166000   243.07788     -416.22067     -334.81072     -416.19335      0              1889.6042      31.128         21.465467      33.455073      22353.912      1135.5638      1568.4549      2964.7938      1605.5783     -370.00431     -2355.1135    
  55168000   249.26928     -419.84266     -336.35913     -419.83445      0              2589.1635      31.128         21.465467      33.437736      22342.328      4367.1828      2792.4825      607.82516     -280.48156     -628.62777     -1307.0734    
  55170000   246.05946     -418.4409      -336.03238     -418.42296      0              4228.5613      31.128         21.465467      33.504959      22387.245      3184.1493      3943.3294      5558.2053      574.5874       1233.0095      439.51971    
  55172000   242.55594     -417.16252     -335.92738     -417.13641      0              4782.4624      31.128         21.465467      33.42513       22333.905      4660.6495      3984.3699      5702.3677      487.17438     -491.97689      642.23833    
  55174000   254.80346     -417.66996     -332.33296     -417.66144      0              3751.5196      31.128         21.465467      33.317154      22261.758      5210.0932      2662.2512      3382.2145      803.32553     -165.94662      111.56644    
  55176000   252.31958     -417.43733     -332.93221     -417.41571      0              4277.2523      31.128         21.465467      33.615403      22461.041      3988.243       4842.1271      4001.3868      284.92756     -1152.5431      519.42658    
  55178000   244.61192     -421.69452     -339.7708      -421.68852      0              4888.26        31.128         21.465467      33.605604      22454.494      4235.5532      4651.7584      5777.4684     -340.71777     -712.14865      53.729927    
  55180000   239.46921     -418.45587     -338.25451     -418.44629      0              4366.8166      31.128         21.465467      33.405556      22320.826      3647.1498      5559.005       3894.2951      433.53535     -395.69245      63.657817    
  55182000   240.62346     -415.60602     -335.01809     -415.59832      0              3642.4734      31.128         21.465467      33.411834      22325.021      3021.6459      4136.8856      3768.8888     -1117.6558      351.1798      -53.892276    
  55184000   254.83248     -418.62463     -333.27791     -418.61009      0              4338.2392      31.128         21.465467      33.373634      22299.497      2247.5674      5465.475       5301.6753      729.37788      546.59736     -1633.3655    
  55186000   244.86139     -416.53367     -334.5264      -416.50905      0              1579.8744      31.128         21.465467      33.333104      22272.415      1966.0214      2694.4043      79.197621      1048.8087      399.57982      65.356803    
  55188000   251.14455     -417.56911     -333.45753     -417.53123      0              2608.3366      31.128         21.465467      33.475015      22367.237      992.71662      5026.0889      1806.2044      2033.3392      2303.842      -745.55963    
  55190000   247.30333     -417.16245     -334.33735     -417.11795      0              5918.1352      31.128         21.465467      33.508649      22389.711      5985.0757      5626.4549      6142.875      -267.69886     -1220.513       635.87596    
  55192000   241.85736     -417.50795     -336.50677     -417.47425      0              3628.6225      31.128         21.465467      33.302567      22252.011      1309.8027      4359.4298      5216.6349     -139.01841      708.90055     -70.038204    
  55194000   243.95178     -415.65463     -333.952       -415.62385      0              2591.9147      31.128         21.465467      33.319892      22263.588      1406.5254      3108.9472      3260.2716      1168.0071      392.82308      80.144536    
  55196000   242.97424     -416.01191     -334.63667     -415.97406      0              3423.1152      31.128         21.465467      33.363467      22292.703      3922.7019      4486.7127      1859.9309      145.68695      190.22603     -69.340082    
  55198000   242.63991     -415.73064     -334.46737     -415.69539      0              2757.2885      31.128         21.465467      33.510112      22390.688      3088.7922      2966.4829      2216.5906     -281.07605     -1100.3631      232.8534     
  55200000   244.08459     -418.82138     -337.07427     -418.79435      0              1549.2444      31.128         21.465467      33.717808      22529.466      598.28699      926.66016      3122.7859      2076.8085     -462.3707       113.0668     
  55202000   241.67118     -417.30132     -336.36249     -417.2776       0              2818.8576      31.128         21.465467      33.521343      22398.192      2388.1155      3390.5584      2677.899       204.8885      -1065.3425     -590.88096    
  55204000   249.05628     -415.51788     -332.10569     -415.48778      0              2840.5071      31.128         21.465467      33.530388      22404.236      3737.2799      2327.8346      2456.4068      755.66252      383.42972     -457.15125    
  55206000   237.43721     -416.90569     -337.38488     -416.87991      0              3773.5157      31.128         21.465467      33.374553      22300.111      3459.4847      2993.4415      4867.6211     -275.47688      991.13586      1258.1766    
  55208000   239.37211     -414.34766     -334.17882     -414.31458      0              2301.2         31.128         21.465467      33.313218      22259.128      2737.4341      1301.4266      2864.7394     -604.31509     -475.91642     -751.92395    
  55210000   247.73646     -418.10134     -335.13117     -418.09029      0              2645.4926      31.128         21.465467      33.264837      22226.801      2412.0962      3827.7882      1696.5935      245.78011     -332.75237     -602.14648    
  55212000   245.23272     -415.61162     -333.47998     -415.58675      0              6321.5248      31.128         21.465467      33.337745      22275.516      6195.8114      6486.8313      6281.9316     -582.54704      444.41334      383.41613    
  55214000   239.23107     -416.23503     -336.11343     -416.19251      0              3225.3673      31.128         21.465467      33.502208      22385.407      1902.5444      3292.2636      4481.2937     -11.91557       101.59627     -413.99166    
  55216000   235.49676     -416.74335     -337.87241     -416.72501      0              3446.576       31.128         21.465467      33.508662      22389.719      2507.8391      4703.865       3128.0238      797.49943     -120.91281     -868.90765    
  55218000   247.20476     -418.29726     -335.50517     -418.27926      0              1676.4422      31.128         21.465467      33.563933      22426.65       1365.1821      3973.4248     -309.28027      552.85997     -312.98867      63.123622    
  55220000   248.94681     -414.975       -331.59947     -414.92747      0              2882.2988      31.128         21.465467      33.449631      22350.276      3007.8762      3897.3275      1741.6927     -1657.3989      389.49707     -743.20878    
  55222000   244.90194     -419.8387      -337.81785     -419.82287      0              2255.4238      31.128         21.465467      33.506771      22388.456      1810.1179      2982.9622      1973.1912     -927.49732      1547.2087      453.52444    
  55224000   241.39587     -417.32946     -336.48284     -417.29561      0              3628.5945      31.128         21.465467      33.507626      22389.027      2946.5172      4575.3298      3363.9365      909.59475      1323.3607      598.3748     
  55226000   243.17393     -416.37883     -334.93671     -416.34745      0              1225.6555      31.128         21.465467      33.650833      22484.714      1549.6641      938.83057      1188.4718      1412.8269      424.46242     -231.10542    
  55228000   246.12951     -416.80066     -334.36868     -416.76668      0              4535.8524      31.128         21.465467      33.458575      22356.252      3046.2398      5744.9657      4816.3518      272.48128     -362.64335     -1367.2262    
  55230000   246.92558     -417.32719     -334.6286      -417.30339      0              1238.6518      31.128         21.465467      33.549359      22416.912      1869.9492      1731.6112      114.39497      223.74698      938.44643      238.03313    
  55232000   251.59815     -414.53251     -330.26901     -414.49409      0              4257.8782      31.128         21.465467      33.563745      22426.524      4284.4351      3499.9021      4989.2973     -2030.7192      209.51579      843.90703    
  55234000   245.63148     -415.27091     -333.00573     -415.22453      0              3661.9004      31.128         21.465467      33.604145      22453.519      3081.1222      4334.3036      3570.2755     -656.44331      371.7925      -723.68896    
  55236000   248.13564     -416.12294     -333.01908     -416.09914      0              3314.6259      31.128         21.465467      33.469111      22363.292      2793.0063      4447.9576      2702.9137      850.0093       551.54641      443.5527     
  55238000   243.854       -416.98132     -335.31144     -416.94559      0              3934.0821      31.128         21.465467      33.479894      22370.497      6707.9215      3739.2157      1355.109      -18.692255     -2903.819      -588.33876    
  55240000   245.43255     -418.26346     -336.0649      -418.23927      0              3510.6621      31.128         21.465467      33.552897      22419.276      4617.0022      5081.3054      833.67874     -332.96198      2003.1496     -1165.9922    
  55242000   245.87616     -417.26724     -334.92011     -417.23724      0              4640.1007      31.128         21.465467      33.535929      22407.938      4508.4005      4998.1447      4413.7571     -63.850222      1194.3583     -132.60608    
  55244000   243.27866     -417.82062     -336.34342     -417.79027      0              3262.7014      31.128         21.465467      33.450469      22350.836      3567.3612      3322.4087      2898.3344     -509.66401      1034.2075      334.50298    
  55246000   239.94455     -417.05422     -336.69366     -417.0248       0              2663.0998      31.128         21.465467      33.524071      22400.015      2579.3125      3537.9129      1872.0741      1147.086      -1902.4121     -40.518812    
  55248000   243.68531     -417.91628     -336.30289     -417.89311      0              2464.1491      31.128         21.465467      33.275719      22234.072      2382.4187      3470.3909      1539.6377      1250.4072     -1066.5751     -562.13486    
  55250000   248.52258     -415.83908     -332.60562     -415.80932      0              2220.655       31.128         21.465467      33.194426      22179.754      853.82028      2853.0757      2955.0689      1907.3429     -237.72242      413.97907    
  55252000   248.43123     -418.80405     -335.60119     -418.7786       0              2958.6275      31.128         21.465467      33.467599      22362.282      2476.0512      2186.3955      4213.4358      1.6452449      1159.0604      372.19934    
  55254000   245.7098      -417.35788     -335.06647     -417.32976      0              3186.6532      31.128         21.465467      33.477795      22369.094      4047.9671      4746.143       765.8494       150.90731      100.38457     -2195.0906    
  55256000   248.75284     -413.97008     -330.65951     -413.94611      0              4775.5322      31.128         21.465467      33.347516      22282.045      7093.2748      1954.0992      5279.2227      336.85914      839.08505      391.613      
  55258000   243.07388     -417.06188     -335.65327     -417.03999      0              3280.1717      31.128         21.465467      33.189936      22176.753      3089.5844      3367.0765      3383.8542      1098.6887      930.13685     -643.50351    
  55260000   248.26448     -416.85689     -333.70988     -416.82944      0              2572.5106      31.128         21.465467      33.365221      22293.875      3156.1092      2015.4346      2545.988      -125.83439     -324.49856     -311.39947    
  55262000   239.87348     -417.01504     -336.67828     -417.00282      0              4021.1864      31.128         21.465467      33.274431      22233.211      3023.1916      3796.6894      5243.6782      1228.5322      237.2856      -1697.9222    
  55264000   246.51909     -415.04318     -332.48072     -415.01663      0              2372.3769      31.128         21.465467      33.43237       22338.743      2230.7408      2655.2796      2231.1102      1434.5715      552.14293      369.96968    
  55266000   246.31008     -414.21592     -331.72346     -414.17876      0              3904.0219      31.128         21.465467      33.541857      22411.9        4399.9049      2830.9037      4481.257       25.978915      1044.971       704.54044    
  55268000   246.58739     -418.18122     -335.59589     -418.15218      0              2504.9348      31.128         21.465467      33.493472      22379.57       2661.2979      3116.3996      1737.1067      729.49647     -1604.7482      15.021507    
  55270000   242.18078     -416.23847     -335.12897     -416.21393      0              2463.2133      31.128         21.465467      33.494612      22380.331     -265.00138      3427.513       4227.1283      1568.5734      1778.6297      1579.0775    
  55272000   243.15045     -418.08473     -336.65047     -418.05195      0              4205.9097      31.128         21.465467      33.505606      22387.677      3814.1888      5049.3933      3754.1472     -29.181548      652.67338     -80.911483    
  55274000   247.60129     -415.7722      -332.8473      -415.74762      0              2971.0887      31.128         21.465467      33.480017      22370.579      1493.5666      4029.9799      3389.7196      206.34528     -916.06079     -247.47433    
  55276000   246.63549     -418.6253      -336.02386     -418.59007      0              2733.1704      31.128         21.465467      33.553643      22419.774      3123.3868      3571.4359      1504.6887      1124.3799     -830.97314     -951.81496    
  55278000   243.836       -417.02292     -335.35907     -417.01113      0              1968.6068      31.128         21.465467      33.529658      22403.748      2867.2009      480.2897       2558.3298     -988.389       -10.529761     -1130.4776    
  55280000   237.02541     -416.61125     -337.22835     -416.56507      0              2891.6204      31.128         21.465467      33.55037       22417.588      3682.537       2959.6214      2032.7027     -1929.7745      459.50149     -1004.3516    
  55282000   246.72062     -415.69155     -333.06159     -415.65042      0              2357.0804      31.128         21.465467      33.485922      22374.525      1440.8821      3175.7701      2454.5889      133.62796     -643.31462      778.48056    
  55284000   240.10702     -415.80244     -335.38747     -415.76106      0              2169.3488      31.128         21.465467      33.73621       22541.762      1341.5703      2910.8875      2255.5887     -675.68865     -115.24802      1280.0427    
  55286000   240.77219     -414.5395      -333.90176     -414.49384      0              3649.6052      31.128         21.465467      33.654407      22487.103      1972.9622      4772.3028      4203.5506     -332.02089      1765.7323      552.63021    
  55288000   242.53951     -415.83426     -334.60462     -415.78652      0              3134.4813      31.128         21.465467      33.882406      22639.447      3047.9478      2555.3116      3800.1845      518.77198      658.56994     -533.60252    
  55290000   242.66231     -418.23743     -336.96666     -418.21434      0              3040.0367      31.128         21.465467      33.61347       22459.749      2920.0696      2565.9155      3634.1249      1106.3039     -559.06248      1121.1661    
  55292000   248.08036     -416.55342     -333.46807     -416.5057       0              2747.2478      31.128         21.465467      33.54941       22416.946      2192.1478      3193.7752      2855.8205      587.34994     -475.33389      986.54041    
  55294000   243.21101     -417.14004     -335.6855      -417.10128      0              3019.9591      31.128         21.465467      33.701111      22518.309      2356.3168      2159.0193      4544.5411      99.97703      -1123.8866      84.599991    
  55296000   247.14835     -416.7647      -333.9915      -416.73042      0              1718.1513      31.128         21.465467      33.555961      22421.323      1911.0102      1592.7729      1650.6707     -802.57197     -928.12269      1312.465     
  55298000   245.43792     -421.95132     -339.75096     -421.92324      0              1442.662       31.128         21.465467      33.359637      22290.144      1244.7254      1847.4358      1235.8249     -9.1994111     -574.80708      650.27601    
  55300000   243.33294     -418.29136     -336.79599     -418.26316      0              2855.6563      31.128         21.465467      33.424234      22333.306      2636.3169      3140.2849      2790.367       1325.039       148.58265      905.01546    
  55302000   250.91828     -415.83657     -331.80076     -415.80185      0              4667.9454      31.128         21.465467      33.440332      22344.063      4181.8851      4205.6978      5616.2532     -52.744347     -1635.4825     -694.42744    
  55304000   248.47918     -415.29981     -332.08089     -415.26256      0              4339.9406      31.128         21.465467      33.595268      22447.587      4369.9237      4166.3248      4483.5732      155.31965     -749.54734      316.81057    
  55306000   246.75565     -416.26609     -333.62441     -416.22302      0              1903.0168      31.128         21.465467      33.597367      22448.99       3515.2522      1451.7798      742.01853      872.9151      -558.77085     -371.42086    
  55308000   246.07027     -419.5552      -337.14306     -419.50757      0              3040.7904      31.128         21.465467      33.431424      22338.111      937.33345      4799.5503      3385.4875     -708.84084      104.43753     -834.45598    
  55310000   243.9311      -414.05668     -332.36098     -414.01036      0              2853.0162      31.128         21.465467      33.447452      22348.82       2290.4543      3784.9449      2483.6495      2155.9598     -1062.8649      884.56477    
  55312000   244.48455     -414.98046     -333.0994      -414.94606      0              3506.4048      31.128         21.465467      33.516689      22395.083      3854.4596      3969.974       2694.7809      767.43824     -597.49498     -37.033218    
  55314000   250.16298     -414.03489     -330.25205     -413.999        0              2083.5526      31.128         21.465467      33.520817      22397.841      2062.5804      3742.7169      445.36047      238.87948      1658.0211     -197.57947    
  55316000   246.62213     -415.79264     -333.19567     -415.7552       0              4379.5029      31.128         21.465467      33.430751      22337.661      6317.028       3081.1907      3740.2899     -876.6158       355.00969     -1886.6881    
  55318000   242.02942     -415.54634     -334.48754     -415.51065      0              2169.2552      31.128         21.465467      33.633816      22473.344      3519.1971      1750.6408      1237.9278      1044.2933      624.33086     -192.81514    
  55320000   246.49734     -416.77112     -334.21595     -416.78735      0              2975.7139      31.128         21.465467      33.675419      22501.142      2548.2951      3679.814       2699.0327      716.34362      225.85994      1212.2858    
  55322000   244.14415     -415.61793     -333.85087     -415.57179      0              2927.564       31.128         21.465467      33.590245      22444.231      2199.2282      4726.8928      1856.571      -1021.3652      110.87246     -1729.3391    
  55324000   243.38973     -417.95821     -336.44381     -417.91737      0              4603.4278      31.128         21.465467      33.484018      22373.253      4697.6549      5805.8914      3306.7369     -422.6384      -833.33358      300.70989    
  55326000   246.75361     -416.15326     -333.51226     -416.11137      0              1358.8231      31.128         21.465467      33.330921      22270.957      1712.5261      236.41729      2127.5257      2189.108      -1024.345       1327.8802    
  55328000   250.79367     -416.03513     -332.04106     -416.00172      0              2247.0363      31.128         21.465467      33.418787      22329.666      2794.8973      2556.0213      1390.1903      151.93936     -86.379268     -1014.8175    
  55330000   253.41344     -419.30837     -334.4369      -419.27728      0              4028.5854      31.128         21.465467      33.394834      22313.662      3727.0168      5034.0541      3324.6854     -632.62172      2282.7735     -466.03524    
  55332000   245.306       -418.18887     -336.03269     -418.14225      0              3546.1156      31.128         21.465467      33.532186      22405.438      2699.3913      4298.4102      3640.5453      628.13421      978.73109     -1504.6378    
[...]
  62140000   245.59994     -416.0664      -333.81178     -416.03753      0              4047.106       31.128         21.465467      33.39202       22311.781      5442.2462      2988.5774      3710.4945     -240.50207      189.97359     -116.15006    
  62142000   244.55189     -417.01841     -335.11479     -417.00201      0              2096.2251      31.128         21.465467      33.58351       22439.731      2952.1054      2671.0464      665.52354     -840.95159     -292.41354      10.525219    
  62144000   245.93847     -419.81827     -337.45027     -419.80658      0              3478.538       31.128         21.465467      33.454832      22353.751      3466.3084      3357.4382      3611.8674     -998.75702     -1247.1244      962.84291    
  62146000   250.35831     -416.51675     -332.66849     -416.49635      0              3678.362       31.128         21.465467      33.553422      22419.627      3541.1205      3268.4661      4225.4993      930.05279      950.50578      621.68003    
  62148000   240.14394     -418.05037     -337.62303     -418.02982      0              2124.714       31.128         21.465467      33.630375      22471.045      3438.2194      301.96376      2633.9589      513.22926      342.64421      900.33631    
  62150000   241.28076     -415.919       -335.11093     -415.89959      0              1999.1329      31.128         21.465467      33.517629      22395.711      1571.4823      3258.5127      1167.4037     -1346.2228      119.93283      489.66281    
  62152000   251.97002     -417.56541     -333.17736     -417.54763      0              4906.5342      31.128         21.465467      33.44834       22349.413      5318.0345      5176.4079      4225.1602     -64.796735     -393.07786     -1163.604     
  62154000   245.34769     -415.29705     -333.12691     -415.26355      0              4787.4709      31.128         21.465467      33.566851      22428.6        4175.294       5662.8729      4524.2457     -1493.8682     -149.34233     -524.61391    
  62156000   254.21624     -417.63069     -332.49036     -417.61122      0              1737.6231      31.128         21.465467      33.584938      22440.685      2214.5766      687.45821      2310.8344     -632.16006      110.64495      372.83547    
  62158000   240.1975      -417.15349     -336.70822     -417.14685      0              5816.0829      31.128         21.465467      33.542922      22412.611      3224.4001      6371.8951      7851.9536      535.59541      1634.1576      251.93939    
  62160000   246.64715     -415.10569     -332.50035     -415.09093      0              2838.4024      31.128         21.465467      33.461785      22358.397      2425.6195      2596.5227      3493.0651      361.61501      172.42953      1234.1019    
  62162000   247.55157     -416.02343     -333.11518     -416.01159      0              2457.7243      31.128         21.465467      33.504518      22386.95       1657.4802      3813.4136      1902.2793      357.42135      945.78282      920.96721    
  62164000   241.54916     -415.6481      -334.75014     -415.62896      0              3234.5389      31.128         21.465467      33.627513      22469.133      3445.1465      3174.289       3084.1812      673.94912      816.3647       1294.0656    
  62166000   249.05464     -418.8016      -335.38995     -418.77111      0              1655.69        31.128         21.465467      33.635613      22474.545      914.5522       2708.7359      1343.782      -600.98721      291.7497       1646.0911    
  62168000   251.4725      -419.7646      -335.54318     -419.75473      0              2120.061       31.128         21.465467      33.541025      22411.344      1972.4841      3815.7075      571.99146      82.556988      640.09168      138.7425     
  62170000   244.49459     -415.39239     -333.50796     -415.35824      0              1832.7946      31.128         21.465467      33.657451      22489.137      439.35191      2641.9269      2417.1048      698.57041     -254.05025     -907.50621    
  62172000   245.80039     -420.23982     -337.91806     -420.2297       0              1486.2381      31.128         21.465467      33.517344      22395.52       1224.9089      2115.2759      1118.5294      423.59546      2192.788      -292.63589    
  62174000   240.74058     -417.83545     -337.2083      -417.8214       0              1943.6871      31.128         21.465467      33.571639      22431.799      2731.3607      3467.9769     -368.27638     -207.40126      2794.936      -161.13662    
  62176000   251.26584     -417.80075     -333.64855     -417.77337      0              2970.8684      31.128         21.465467      33.394158      22313.21       3674.8657      1601.5485      3636.191      -1656.0613      252.70632      995.79716    
  62178000   244.37066     -417.53479     -335.69186     -417.51116      0              3353.8131      31.128         21.465467      33.291408      22244.555      3537.8934      2521.7783      4001.7676      448.1016      -611.06793      242.13841    
  62180000   242.84328     -416.80984     -335.47846     -416.79458      0              2683.8034      31.128         21.465467      33.18928       22176.315      3859.1444      1768.3913      2423.8744     -176.04057      446.90654     -162.66125    
  62182000   241.83242     -416.35704     -335.36421     -416.34127      0              4416.0305      31.128         21.465467      33.316782      22261.509      3086.5224      4046.9143      6114.6547      454.89596      266.51666      1319.7746    
  62184000   247.23242     -417.34665     -334.54529     -417.3202       0             -1.4704628      31.128         21.465467      33.480446      22370.866     -1349.3374     -207.36337      1552.2894      330.77141      1229.5388      301.3357     
  62186000   241.31852     -418.30333     -337.48261     -418.29681      0              2156.5188      31.128         21.465467      33.475126      22367.311      2815.6033      532.02818      3121.9249     -961.81477     -490.69878     -346.13376    
  62188000   243.19823     -420.05014     -338.59988     -420.03494      0              1984.9388      31.128         21.465467      33.336171      22274.465      450.61226      3396.7306      2107.4735     -867.14268     -108.93157     -750.5208     
  62190000   247.76965     -416.38116     -333.39988     -416.35458      0              3007.8705      31.128         21.465467      33.385285      22307.282      2436.2712      2892.7111      3694.6292      1000.7056     -1805.0603      17.454831    
  62192000   244.80678     -420.14463     -338.15565     -420.13126      0              3259.256       31.128         21.465467      33.411313      22324.673      1889.1748      4103.4206      3785.1727      2768.8347     -935.30449      965.23415    
  62194000   246.44019     -417.92753     -335.3915      -417.90189      0              2968.5236      31.128         21.465467      33.571899      22431.973      861.51505      4836.7669      3207.2888      338.85662      619.43497      823.13799    
  62196000   246.77412     -418.39369     -335.74582     -418.3787       0              3828.2358      31.128         21.465467      33.422869      22332.394      3469.5754      1842.6689      6172.463       482.77037     -624.8991       1166.2749    
  62198000   250.93747     -417.15595     -333.11372     -417.14022      0              3830.0113      31.128         21.465467      33.237834      22208.758      4147.9474      4313.9146      3028.1719     -712.28851     -699.80558     -651.11949    
  62200000   247.76194     -415.37669     -332.39799     -415.36058      0              3877.969       31.128         21.465467      33.503175      22386.053      4187.8062      2108.8561      5337.2447      1826.6851      66.48005       2082.0459    
  62202000   248.08803     -417.34272     -334.25481     -417.3285       0              1608.3866      31.128         21.465467      33.408788      22322.986      1982.3464      731.83463      2110.9787      1454.43        1193.9054     -718.91616    
  62204000   247.21253     -415.06666     -332.27196     -415.04411      0              2069.6002      31.128         21.465467      33.644115      22480.226      2440.9827      1467.814       2300.0038     -788.16983      1349.9077      188.59066    
  62206000   248.91981     -414.03262     -330.66613     -414.00702      0              2827.4544      31.128         21.465467      33.510287      22390.805      1877.3115      2504.7767      4100.2751     -147.01482      115.24754      477.46957    
  62208000   246.41723     -416.57005     -334.04171     -416.56177      0              4524.294       31.128         21.465467      33.381019      22304.431      2924.5465      5537           5111.3356      900.40923      1573.2874     -869.81112    
  62210000   245.1479      -415.93888     -333.83566     -415.91481      0              4028.4982      31.128         21.465467      33.630636      22471.219      1858.034       4704.8977      5522.5627      827.77632      403.4173       1229.8912    
  62212000   250.32465     -416.61588     -332.77889     -416.60019      0              3553.6575      31.128         21.465467      33.517722      22395.773      2344.5698      2981.2892      5335.1135     -282.50127     -493.43179      792.73489    
  62214000   242.14647     -419.89005     -338.79204     -419.88251      0              1881.5122      31.128         21.465467      33.442598      22345.576      1419.545       2894.2675      1330.7242      1568.4323     -470.68233     -387.80807    
  62216000   246.02936     -415.34789     -332.94945     -415.33785      0              233.08932      31.128         21.465467      33.595687      22447.867     -791.94052      28.374187      1462.8343      938.71747      1010.0417      1470.933     
  62218000   249.45741     -418.81331     -335.26677     -418.79848      0              3451.8317      31.128         21.465467      33.610089      22457.491      4291.5132      1780.0632      4283.9188      182.11727     -104.2224       39.670889    
  62220000   248.04233     -418.71228     -335.63967     -418.70624      0              2431.9128      31.128         21.465467      33.480646      22371          4550.5709      1603.5615      1141.6061     -737.20185     -1626.5194     -1336.6924    
  62222000   248.06082     -417.63608     -334.55728     -417.62464      0              3539.4737      31.128         21.465467      33.471062      22364.596      5001.9309      3028.2463      2588.2439      220.41255     -70.684955     -488.85601    
  62224000   247.08538     -415.61594     -332.86382     -415.59181      0              2866.3398      31.128         21.465467      33.531094      22404.708      1924.8138      2630.6324      4043.5734      1172.7028      463.00505      308.49151    
  62226000   244.19013     -416.33071     -334.54826     -416.31033      0              2675.5576      31.128         21.465467      33.499545      22383.628      2592.6387      1825.3244      3608.7098      1738.0905     -214.46465     -42.95659     
  62228000   237.43815     -420.45923     -340.9381      -420.45367      0              3260.295       31.128         21.465467      33.598467      22449.725      1309.3111      5276.8883      3194.6856     -723.86325     -123.97726     -140.57714    
  62230000   244.77364     -415.34563     -333.36775     -415.33541      0              3554.7759      31.128         21.465467      33.637508      22475.811      1753.2372      5838.8014      3072.289      -210.43666     -353.16963      1061.4683    
  62232000   243.28535     -416.88282     -335.40339     -416.86911      0              3557.5916      31.128         21.465467      33.559019      22423.366      4299.133       1046.4064      5327.2355     -1328.3525     -450.15462     -1812.5312    
  62234000   240.18656     -418.35238     -337.91077     -418.34056      0              2729.6638      31.128         21.465467      33.6205        22464.447      2055.0583      3344.4704      2789.4627      1273.511       693.79652     -1768.9818    
  62236000   248.93758     -416.43277     -333.06033     -416.42093      0              2009.6789      31.128         21.465467      33.709671      22524.029      3392.0833      1019.9331      1617.0202     -25.17636      -649.2421       740.98621    
  62238000   242.05572     -417.43376     -336.36615     -417.42564      0              4221.031       31.128         21.465467      33.650017      22484.169      2490.6204      5310.3803      4862.0924     -323.72008     -235.49228     -160.35222    
  62240000   246.27345     -417.52675     -335.04657     -417.51885      0              3074.3759      31.128         21.465467      33.66158       22491.895      1836.3687      5426.0742      1960.6847      560.72227     -356.14577      91.539095    
  62242000   242.91307     -420.17182     -338.81707     -420.15559      0              2770.9577      31.128         21.465467      33.843769      22613.63       3124.3677      2006.9059      3181.5994      758.57298     -225.60732     -828.39804    
  62244000   244.40802     -418.06859     -336.21316     -418.05341      0              3400.2842      31.128         21.465467      33.580238      22437.545      2598.5763      3784.3927      3817.8837      977.97615      1435.8362      7.05715      
  62246000   242.84956     -421.35006     -340.01657     -421.34522      0              1748.3677      31.128         21.465467      33.622987      22466.109      1871.8717      996.13344      2377.0978     -69.197543     -304.78274      293.72543    
  62248000   243.38889     -420.42399     -338.90988     -420.41285      0              3475.9832      31.128         21.465467      33.443363      22346.088      3798.9527      2967.5353      3661.4617     -1620.9606     -807.84188     -923.86962    
  62250000   248.58971     -420.47837     -337.22243     -420.46865      0              2019.6929      31.128         21.465467      33.624447      22467.084      2114.7386      1795.5431      2148.797      -312.50972      1359.874      -252.61543    
  62252000   249.00157     -417.95623     -334.56236     -417.93887      0              2792.3676      31.128         21.465467      33.640067      22477.521      2543.042       5268.7004      565.36041      1281.171       1091.0656     -1393.3565    
  62254000   247.15456     -414.62107     -331.84578     -414.60704      0              2675.1054      31.128         21.465467      33.440552      22344.209      1534.426       3275.3398      3215.5503      525.06083      1511.7042      675.45989    
  62256000   242.72035     -416.5404      -335.25019     -416.53291      0              3352.0959      31.128         21.465467      33.359521      22290.066      2942.0119      2773.3406      4340.9352      188.39892     -49.60616      -2016.2715    
  62258000   245.40839     -416.86206     -334.67159     -416.85567      0              4442.2613      31.128         21.465467      33.482913      22372.514      5957.9312      3968.6334      3400.2195      1333.9766      997.9279       442.05253    
  62260000   243.47702     -420.35021     -338.80658     -420.34286      0              3492.1999      31.128         21.465467      33.531372      22404.894      4521.5812      2874.7663      3080.2524      378.62653     -687.2556       174.18615    
  62262000   244.22666     -416.27763     -334.48294     -416.26782      0              3897.1159      31.128         21.465467      33.627378      22469.043      2724.7333      3157.8777      5808.7368      887.82393     -1346.8445      340.11047    
  62264000   239.33756     -414.67341     -334.51615     -414.65457      0              3859.5712      31.128         21.465467      33.645148      22480.916      3385.0267      2663.6847      5530.0021     -572.48113      1033.1776      773.95472    
  62266000   239.24961     -413.61135     -333.48354     -413.59879      0              3232.1839      31.128         21.465467      33.595488      22447.734      1270.1963      3261.1727      5165.1828      1014.7999      164.37689      116.35289    
  62268000   246.03202     -417.38852     -334.98919     -417.37993      0              4209.135       31.128         21.465467      33.528698      22403.107      3791.2758      4083.075       4753.0541     -886.97819     -2155.7148     -36.807932    
  62270000   246.38173     -419.60617     -337.08972     -419.59948      0              2633.9819      31.128         21.465467      33.438144      22342.601      2513.7075      3287.3953      2100.843      -2169.1167     -103.86228     -698.72964    
  62272000   240.60962     -414.49844     -333.91514     -414.48745      0              3927.573       31.128         21.465467      33.598009      22449.419      4691.4444      1878.9364      5212.3383      874.95184      81.912769      1598.3788    
  62274000   247.39254     -416.43669     -333.5817      -416.42482      0              2073.8075      31.128         21.465467      33.435938      22341.126      1602.6388      3508.5029      1110.281      -169.15693      37.085468      364.13758    
  62276000   250.15394     -418.34328     -334.56347     -418.33133      0              2850.4384      31.128         21.465467      33.451735      22351.682      825.56148      3663.9295      4061.8244      664.3744       757.95698     -119.09619    
  62278000   250.23529     -414.50911     -330.70205     -414.49085      0              2552.5306      31.128         21.465467      33.516997      22395.289     -21.808532      3994.9465      3684.4537      406.15104      895.67529      443.25626    
  62280000   244.02402     -416.51579     -334.78897     -416.49606      0              3483.2772      31.128         21.465467      33.312037      22258.339      2737.6551      2729.3302      4982.8464     -454.74733      544.38657      321.95976    
  62282000   244.66052     -417.21376     -335.27376     -417.19725      0              4279.0344      31.128         21.465467      33.217703      22195.307      5151.7797      4293.2219      3392.1017      820.76114      1357.185       414.77424    
WARNING: Wall time limit reached (../timer.cpp:193)
Loop time of 85797.7 on 4 procs for 7518000 steps with 2592 atoms

Performance: 3.785 ns/day, 6.340 hours/ns, 87.625 timesteps/s
1433.9% CPU use with 4 MPI tasks x no OpenMP threads

MPI task timing breakdown:
Section |  min time  |  avg time  |  max time  |%varavg| %total
---------------------------------------------------------------
Pair    | 20800      | 21095      | 21393      | 150.3 | 24.59
Bond    | 0.70105    | 0.7668     | 0.82935    |   5.8 |  0.00
Neigh   | 629.39     | 638.25     | 643.01     |  20.7 |  0.74
Comm    | 2327.3     | 2619.5     | 2918.7     | 423.7 |  3.05
Output  | 6791.2     | 6791.3     | 6791.7     |   0.3 |  7.92
Modify  | 54625      | 54632      | 54638      |   2.4 | 63.68
Other   |            | 20.99      |            |       |  0.02

Nlocal:            648 ave         661 max         634 min
Histogram: 1 0 1 0 0 0 0 1 0 1
Nghost:        4131.25 ave        4159 max        4100 min
Histogram: 1 0 0 1 0 0 0 1 0 1
Neighs:              0 ave           0 max           0 min
Histogram: 4 0 0 0 0 0 0 0 0 0
FullNghs:       160439 ave      166626 max      154071 min
Histogram: 1 0 0 1 0 0 0 1 0 1

Total # of neighbors = 641756
Ave neighs/atom = 247.59105
Ave special neighs/atom = 0
Neighbor list builds = 150360
Dangerous builds not checked
unfix 3
unfix 1
unfix 2


# Finalize simulation
write_restart	restart.lmp.${pid}
write_restart	restart.lmp.0
System init for write_restart ...
Generated 0 of 1 mixed pair_coeff terms from geometric mixing rule
write_data	data.final.${pid} nocoeff
write_data	data.final.0 nocoeff
System init for write_data ...
Generated 0 of 1 mixed pair_coeff terms from geometric mixing rule
Total wall time: 23:50:20
