LAMMPS (23 Jun 2022)
include procedure.lmp
echo both
include		in.partitions
variable        pid world 0
include		in.temp
variable	temperature equal 245
variable        tempDamp equal 0.100 # this is 0.1 ps
include		in.pressure
variable        pressure equal 3039.75
variable        pressureDamp equal 1.0 #this is 1ps

variable	barostat string	   tri
variable	direction string   z
variable	direction_x_bool equal 0
variable	direction_y_bool equal 0
variable	direction_z_bool equal 1

include		in.seed
variable        seed world 745823

units           metal
atom_style	full
box tilt large
read_restart 	restart.lmp.${pid}
read_restart 	restart.lmp.0
Reading restart file ...
  restart file = 23 Jun 2022, LAMMPS = 23 Jun 2022
  restoring atom style full from restart
  triclinic box = (0 0 -1.0474412) to (31.128 21.465467 32.752508) with tilt (-9.18238 0.79666009 -11.349234)
WARNING: Triclinic box skew is large (../domain.cpp:224)
  2 by 1 by 2 MPI processor grid
Summary of lammps deepmd module ...
  >>> Info of deepmd-kit:
  installed to:       /u/sigbjobo/software/DEEPMD_FROM_SOURCE/deepmd-kit/install
  source:             v2.1.3
  source branch:       master
  source commit:      5a32c49
  source commit at:   2022-07-01 09:52:58 +0800
  surpport model ver.:1.1 
  build float prec:   double
  build with tf inc:  /u/sigbjobo/software/DEEPMD_FROM_SOURCE/tensorflow/install/include;/u/sigbjobo/software/DEEPMD_FROM_SOURCE/tensorflow/install/include
  build with tf lib:  /u/sigbjobo/software/DEEPMD_FROM_SOURCE/tensorflow/install/lib/libtensorflow_cc.so;/u/sigbjobo/software/DEEPMD_FROM_SOURCE/tensorflow/install/lib/libtensorflow_framework.so
  set tf intra_op_parallelism_threads: 0
  set tf inter_op_parallelism_threads: 0
  >>> Info of lammps module:
  use deepmd-kit at:  /u/sigbjobo/software/DEEPMD_FROM_SOURCE/deepmd-kit/install
  source:             v2.1.3
  source branch:      master
  source commit:      5a32c49
  source commit at:   2022-07-01 09:52:58 +0800
  build float prec:   double
  build with tf inc:  /u/sigbjobo/software/DEEPMD_FROM_SOURCE/tensorflow/install/include;/u/sigbjobo/software/DEEPMD_FROM_SOURCE/tensorflow/install/include
  build with tf lib:  /u/sigbjobo/software/DEEPMD_FROM_SOURCE/tensorflow/install/lib/libtensorflow_cc.so;/u/sigbjobo/software/DEEPMD_FROM_SOURCE/tensorflow/install/lib/libtensorflow_framework.so
  restoring pair style deepmd from restart
  2592 atoms
Finding 1-2 1-3 1-4 neighbors ...
  special bond factors lj:    0        0        0       
  special bond factors coul:  0        0        0       
     0 = max # of 1-2 neighbors
     0 = max # of 1-3 neighbors
     0 = max # of 1-4 neighbors
     1 = max # of special neighbors
  special bonds CPU = 0.001 seconds
  read_restart CPU = 0.061 seconds
include 	in.setup
variable	out_freq equal 2000
variable	out_freq2 equal 2000

timestep        0.0005

neigh_modify    delay 7 every 1

include         in.deepmd
# This is deepMD model

# create groups ###
#group ox type 2
#group hy type 1

mass 2 15.999
mass 1 1.008

pair_style      deepmd ../graph.pb
pair_coeff      * *

bond_style      none
angle_style     none
dihedral_style  none
improper_style  none
neigh_modify exclude none


neighbor        2.0 bin
neigh_modify    every 50 delay 0 check no

thermo          ${out_freq}
thermo          2000
thermo_style 	custom step temp pe etotal epair emol press lx ly lz vol pxx pyy pzz pxy pxz pyz

restart 	${out_freq} restart.lmp.${pid} restart2.lmp.${pid}
restart 	2000 restart.lmp.${pid} restart2.lmp.${pid}
restart 	2000 restart.lmp.0 restart2.lmp.${pid}
restart 	2000 restart.lmp.0 restart2.lmp.0


timer           timeout 23:50:00 every 1000
New timer settings: style=normal  mode=nosync  timeout=23:50:00


# Set number of time steps
variable 	nsteps_wall		equal	 6000000
variable 	nsteps_enhanced_coex    equal	60000000

variable     nsteps_enhanced_coex_upto equal (${nsteps_wall}+${nsteps_enhanced_coex})
variable     nsteps_enhanced_coex_upto equal (6000000+${nsteps_enhanced_coex})
variable     nsteps_enhanced_coex_upto equal (6000000+60000000)


# Set temperature for first step
if "$(step) < 1  " then    "velocity 	all create ${temperature} ${seed} dist gaussian"


# Always run thermo and barostat


######################################
# Run simulation with wall potential #
######################################
if " $(step) < ${nsteps_wall} " then    "fix             3 all plumed plumedfile plumed.equil.dat outfile plumed.equil.out"   "fix             1 all nph ${direction} ${pressure} ${pressure} ${pressureDamp}"   "fix             2 all temp/csvr ${temperature} ${temperature} ${tempDamp} ${seed}"   "run             ${nsteps_wall} upto"
if " $(step) == ${nsteps_wall} " then    "unfix 3"   "unfix 1"   "unfix 2"


############################
# Run enhanced coesistence #
############################
if "$(step) == ${nsteps_wall}" then    "fix             3 all plumed plumedfile plumed.start.dat outfile plumed.out" else    "fix             3 all plumed plumedfile plumed.dat outfile plumed.out"
fix             3 all plumed plumedfile plumed.dat outfile plumed.out

if "$(step) < ${nsteps_enhanced_coex_upto} && $(step) >= ${nsteps_wall} " then    "include         in.dump"    "fix             1 all nph ${direction} ${pressure} ${pressure} ${pressureDamp}"   "fix             2 all temp/csvr ${temperature} ${temperature} ${tempDamp} ${seed}"   "run             ${nsteps_enhanced_coex_upto} upto"    "unfix 3"   "unfix 1"   "unfix 2"
include         in.dump
dump            myDump all atom ${out_freq2} dump.water.${pid}
dump            myDump all atom 2000 dump.water.${pid}
dump            myDump all atom 2000 dump.water.0
dump            myDump2 all dcd ${out_freq2} dump.${pid}.dcd
dump            myDump2 all dcd 2000 dump.${pid}.dcd
dump            myDump2 all dcd 2000 dump.0.dcd
dump_modify     myDump append yes
dump_modify     myDump2 append yes

fix             1 all nph ${direction} ${pressure} ${pressure} ${pressureDamp}
fix             1 all nph z ${pressure} ${pressure} ${pressureDamp}
fix             1 all nph z 3039.75 ${pressure} ${pressureDamp}
fix             1 all nph z 3039.75 3039.75 ${pressureDamp}
fix             1 all nph z 3039.75 3039.75 1
Resetting global fix info from restart file:
  fix style: nph, fix ID: 1
fix             2 all temp/csvr ${temperature} ${temperature} ${tempDamp} ${seed}
fix             2 all temp/csvr 245 ${temperature} ${tempDamp} ${seed}
fix             2 all temp/csvr 245 245 ${tempDamp} ${seed}
fix             2 all temp/csvr 245 245 0.1 ${seed}
fix             2 all temp/csvr 245 245 0.1 745823
Resetting global fix info from restart file:
  fix style: temp/csvr, fix ID: 2
run             ${nsteps_enhanced_coex_upto} upto
run             66000000 upto

CITE-CITE-CITE-CITE-CITE-CITE-CITE-CITE-CITE-CITE-CITE-CITE-CITE

Your simulation uses code contributions which should be cited:

- USER-DEEPMD package:

@article{Wang_ComputPhysCommun_2018_v228_p178,
  author = {Wang, Han and Zhang, Linfeng and Han, Jiequn and E, Weinan},
  doi = {10.1016/j.cpc.2018.03.016},
  url = {https://doi.org/10.1016/j.cpc.2018.03.016},
  year = 2018,
  month = {jul},
  publisher = {Elsevier {BV}},
  volume = 228,
  journal = {Comput. Phys. Commun.},
  title = {{DeePMD-kit: A deep learning package for many-body potential energy representation and molecular dynamics}},
  pages = {178--184}
}

CITE-CITE-CITE-CITE-CITE-CITE-CITE-CITE-CITE-CITE-CITE-CITE-CITE

Generated 0 of 1 mixed pair_coeff terms from geometric mixing rule
All restart file global fix info was re-assigned
Neighbor list info ...
  update every 50 steps, delay 0 steps, check no
  max neighbors/atom: 2000, page size: 100000
  master list distance cutoff = 8
  ghost atom cutoff = 8
  binsize = 4, bins = 11 9 9
  1 neighbor lists, perpetual/occasional/extra = 1 0 0
  (1) pair deepmd, perpetual
      attributes: full, newton on
      pair build: full/bin
      stencil: full/bin/3d
      bin: standard
Per MPI rank memory allocation (min/avg/max) = 7.3 | 7.3 | 7.301 Mbytes
   Step          Temp          PotEng         TotEng         E_pair         E_mol          Press            Lx             Ly             Lz           Volume          Pxx            Pyy            Pzz            Pxy            Pxz            Pyz      
  39678000   245.85581     -418.65239     -336.31207     -418.65239      0              2309.2768      31.128         21.465467      33.799949      22584.351      1544.3555      2040.8983      3342.5767     -448.43387      221.41702      561.8037     
  39680000   241.19713     -416.80295     -336.02289     -416.75195      0              3258.8911      31.128         21.465467      33.575455      22434.349      4842.1339      1478.7267      3455.8128      883.94716      392.25206      197.47244    
  39682000   244.08368     -417.32259     -335.57579     -417.27273      0              1617.3551      31.128         21.465467      33.433711      22339.639      2226.8191      1602.7304      1022.5159     -1083.1693     -1999.4608     -750.24977    
  39684000   242.93053     -416.50228     -335.14168     -416.46376      0              441.92492      31.128         21.465467      33.648109      22482.894      420.06545      328.71286      576.99646      807.75565      958.27104     -144.07882    
  39686000   246.06589     -415.71305     -333.30237     -415.67952      0              1933.2126      31.128         21.465467      33.684493      22507.206      1712.0641      3034.5868      1052.9869     -127.93486      1332.0024      1680.7945    
  39688000   247.99098     -416.00152     -332.94611     -415.95809      0              2333.6993      31.128         21.465467      33.536493      22408.315      3412.1585      245.70502      3343.2344      874.44824     -1237.9117      795.97257    
  39690000   240.25716     -416.50149     -336.03624     -416.44938      0              3558.3719      31.128         21.465467      33.425414      22334.095      3191.0952      3114.6569      4369.3635      486.69663      770.67905      375.82061    
  39692000   246.3188      -417.10474     -334.60937     -417.05292      0              2552.5749      31.128         21.465467      33.588754      22443.235      1405.1671      2150.4126      4102.1451     -1563.8171     -982.66107     -123.1647     
  39694000   246.59136     -419.67667     -337.09001     -419.62385      0              4263.5653      31.128         21.465467      33.390937      22311.058      4280.894       3622.2824      4887.5196      469.87244     -413.66203      863.68312    
  39696000   243.23923     -417.99241     -336.52842     -417.95141      0              3340.8353      31.128         21.465467      33.465034      22360.568      1725.2989      5772.6368      2524.5703     -26.034109      254.0461      -1186.1114    
  39698000   241.75007     -415.50838     -334.54313     -415.45692      0              1249.059       31.128         21.465467      33.594792      22447.27       983.00023      440.81573      2323.361       1136.4102     -983.60879      808.48879    
  39700000   251.50875     -417.25857     -333.02501     -417.20593      0              769.03836      31.128         21.465467      33.671058      22498.228      1231.7507      890.38753      184.97683     -562.8716       39.160752      284.0046     
  39702000   244.50099     -419.80942     -337.92285     -419.76187      0              194.06327      31.128         21.465467      33.725621      22534.686     -891.07801      39.095259      1434.1726     -1263.3781      1130.6302      496.33757    
  39704000   243.00302     -416.88342     -335.49854     -416.83091      0              2293.1147      31.128         21.465467      33.484257      22373.412      1145.2243      1558.4192      4175.7005      350.49741     -508.73785     -365.58848    
  39706000   237.16221     -418.1889      -338.76019     -418.16216      0              4371.3997      31.128         21.465467      33.365874      22294.312      4501.9359      4972.9875      3639.2756     -729.86759     -906.46278     -2269.9219    
  39708000   245.41282     -419.4937      -337.30175     -419.46661      0              1864.9112      31.128         21.465467      33.574002      22433.378      1368.0448      1750.1609      2476.528       745.91522      1187.361      -674.71844    
  39710000   249.69998     -418.28358     -334.6558      -418.23194      0              2832.3797      31.128         21.465467      33.514472      22393.601      5170.3539      2137.2203      1189.565       634.1523       57.610148     -1083.8655    
  39712000   246.76103     -416.05831     -333.41482     -416.0197       0              2382.2752      31.128         21.465467      33.354208      22286.517      3211.9828      3147.3588      787.48395     -741.26184     -719.41465     -220.68875    
  39714000   241.48053     -415.84567     -334.97069     -415.8012       0              4002.0957      31.128         21.465467      33.258139      22222.326      4241.539       3572.2786      4192.4696      144.31682      509.2922      -62.877796    
  39716000   238.58257     -418.91734     -339.01293     -418.88161      0              1671.0527      31.128         21.465467      33.347624      22282.117      1804.5079     -1556.295       4764.9454      716.11788     -1210.9916     -251.5068     
  39718000   256.01156     -418.881       -333.13939     -418.8445       0              3955.6297      31.128         21.465467      33.457787      22355.726      4401.2719      4662.4485      2803.1688      109.82277     -1031.7471     -1705.4235    
  39720000   249.81292     -416.03006     -332.36446     -415.97746      0              3009.8392      31.128         21.465467      33.438272      22342.686      2624.3812      4166.6678      2238.4685      1576.5428      716.89184     -205.29728    
  39722000   247.07304     -416.48758     -333.7396      -416.43943      0              5015.8859      31.128         21.465467      33.392075      22311.818      5580.4689      4223.6122      5243.5768      673.05061     -1235.2443      137.01841    
  39724000   249.04359     -415.56576     -332.15781     -415.52367      0              2694.3302      31.128         21.465467      33.334756      22273.519      2506.7982      3698.1921      1878.0005      706.72675     -1766.1883      671.45659    
  39726000   247.67843     -417.55878     -334.60804     -417.51641      0              3974.8387      31.128         21.465467      33.264146      22226.339      4539.6454      3993.0503      3391.8204      1290.2758     -352.52886     -456.58991    
  39728000   245.43365     -417.75814     -335.55921     -417.72769      0              3509.5565      31.128         21.465467      33.367615      22295.475      2634.9719      3049.694       4844.0036      1538.3664      63.323245      1621.7093    
  39730000   247.26801     -420.31659     -337.5033      -420.27711      0              4236.0155      31.128         21.465467      33.355493      22287.375      2551.3662      5513.7003      4642.9801     -156.24609      485.47427      64.281714    
  39732000   244.29939     -417.13426     -335.31521     -417.08691      0              3264.2471      31.128         21.465467      33.466478      22361.533      5053.9504      2134.9251      2603.8657      61.351491     -2224.5644     -754.21864    
  39734000   242.94185     -416.53421     -335.16982     -416.48406      0              2475.6817      31.128         21.465467      33.365205      22293.864      3919.7217      973.87973      2533.4437      128.45605     -865.34455      353.82975    
  39736000   240.71334     -417.41619     -336.79816     -417.36694      0              1540.8467      31.128         21.465467      33.610527      22457.783      969.8291       2342.3038      1310.4072     -1686.6405     -639.60046     -1066.562     
  39738000   243.23669     -419.27392     -337.81078     -419.23297      0              3012.8012      31.128         21.465467      33.56906       22430.076      3934.9276      3291.7954      1811.6805      738.86167      476.0135      -559.97463    
  39740000   246.26446     -415.85809     -333.38092     -415.81419      0              1574.4732      31.128         21.465467      33.626327      22468.34      -1146.0551      4659.2212      1210.2534      342.31117      940.49126     -963.05987    
  39742000   249.87167     -418.85629     -335.17101     -418.81441      0              3790.4461      31.128         21.465467      33.539923      22410.607      3048.4416      5168.7183      3154.1786     -795.86257      2214.2765     -1148.0128    
  39744000   248.27095     -416.45187     -333.30269     -416.41517      0              3134.765       31.128         21.465467      33.495325      22380.808      2708.2826      3890.7916      2805.2206     -187.13092     -570.56523     -539.49099    
  39746000   244.74965     -416.77548     -334.80563     -416.73906      0              5157.2548      31.128         21.465467      33.314456      22259.955      4770.7206      5262.5296      5438.5143     -214.62754      594.45326      719.44572    
  39748000   242.70804     -416.92512     -335.63903     -416.87572      0              1914.2657      31.128         21.465467      33.455341      22354.091      1997.8756      1290.5281      2454.3934      1921.3077      372.3027       86.499955    
  39750000   241.16688     -416.47885     -335.70892     -416.43086      0              1979.2937      31.128         21.465467      33.287936      22242.235      2695.6398      1110.0803      2132.161      -122.33455     -285.7239      -2288.2912    
  39752000   245.91033     -418.11298     -335.7544      -418.08636      0              4038.52        31.128         21.465467      33.409572      22323.51       3961.3324      3614.7016      4539.526       573.29727     -901.74482      632.74434    
  39754000   241.51451     -417.32223     -336.43588     -417.28281      0              2833.5446      31.128         21.465467      33.36499       22293.721      4269.5831      3999.4966      231.55398      102.8064      -423.75006     -2054.9643    
  39756000   247.51792     -417.35465     -334.45767     -417.30508      0              4622.2418      31.128         21.465467      33.59528       22447.595      2519.1271      4885.9855      6461.6127      155.92295     -1330.7481      1057.7382    
  39758000   244.48188     -415.83506     -333.95489     -415.78441      0              3072.5957      31.128         21.465467      33.592296      22445.601      2382.4112      2884.108       3951.2679     -227.47571      410.39177     -971.18654    
  39760000   238.37084     -417.24799     -337.41449     -417.22338      0              3261.3375      31.128         21.465467      33.543282      22412.852      3256.0382      3994.0187      2533.9555      681.68927      282.88552      1086.3002    
  39762000   243.07458     -417.00662     -335.59777     -416.9712       0              2726.2126      31.128         21.465467      33.480718      22371.047      2913.262       1755.5583      3509.8173     -1436.7072      179.85656     -330.90194    
  39764000   246.88078     -416.75465     -334.07106     -416.708        0              3208.4322      31.128         21.465467      33.444443      22346.809      2954.619       2837.1449      3833.5328      918.16948     -189.89284      936.05979    
  39766000   242.17639     -414.66166     -333.55363     -414.62025      0              1136.874       31.128         21.465467      33.717986      22529.585      1885.4883      511.96238      1013.1713     -432.6616      -887.70544      280.99315    
  39768000   244.70285     -416.06285     -334.10868     -416.01264      0              2668.8394      31.128         21.465467      33.474869      22367.139      3525.5783      3212.6722      1268.2678     -838.94212     -1241.4928      731.21717    
  39770000   253.07406     -416.54949     -331.79169     -416.51153      0              2612.5607      31.128         21.465467      33.438687      22342.964      3306.3419      712.60456      3818.7356     -884.45882      32.555494      602.03556    
  39772000   241.11403     -415.24321     -334.49098     -415.20755      0              3100.0972      31.128         21.465467      33.422089      22331.873      4187.9952      1590.7978      3521.4986     -178.11914     -1005.4381      406.65549    
  39774000   244.42766     -417.36162     -335.49961     -417.33847      0              3114.2783      31.128         21.465467      33.346687      22281.491      2667.8534      3686.8144      2988.1672      660.22382      1078.9632      66.143874    
  39776000   241.31552     -417.82796     -337.00825     -417.77744      0              4057.2609      31.128         21.465467      33.299495      22249.958      5616.3117      3399.0042      3156.4668      69.106826     -666.83599      238.13841    
  39778000   240.41804     -416.01035     -335.49121     -415.96848      0              2789.2537      31.128         21.465467      33.438351      22342.739      3491.152       2614.9952      2261.614      -471.94605      994.52501     -611.70941    
  39780000   250.29968     -418.82555     -334.99693     -418.79039      0              1837.3863      31.128         21.465467      33.285227      22240.425      3577.21       -991.40181      2926.3508      178.7079      -162.43109      623.04942    
  39782000   244.0505      -416.18183     -334.44614     -416.13517      0              3004.3701      31.128         21.465467      33.421853      22331.715      5079.1443      1389.495       2544.4709      432.15123     -1000.4323      1278.8702    
  39784000   238.02656     -414.21126     -334.49306     -414.16029      0              1507.1248      31.128         21.465467      33.508669      22389.724      1932.5522      711.73836      1877.0839     -262.98705     -181.27456      65.397389    
  39786000   245.39634     -415.6296      -333.44316     -415.59004      0              4399.9097      31.128         21.465467      33.315716      22260.797      5200.3815      5440.736       2558.6115      219.78739      1255.4183      720.78147    
  39788000   245.38375     -417.24161     -335.05939     -417.20015      0              4638.453       31.128         21.465467      33.290312      22243.823      3204.2325      4334.5901      6376.5365      1116.1595      721.90589      259.71657    
  39790000   244.33414     -416.87654     -335.04585     -416.83328      0              2198.6495      31.128         21.465467      33.38814       22309.189      2037.3099      1252.8726      3305.7661      1936.4476      2787.1898      1158.8019    
  39792000   242.2193      -416.44887     -335.32647     -416.39668      0              2678.621       31.128         21.465467      33.506564      22388.317      2851.0488      1588.2971      3596.5171     -1201.7947     -692.41363      1869.6511    
  39794000   245.82897     -417.39425     -335.06292     -417.35797      0              4267.4093      31.128         21.465467      33.526484      22401.627      3924.0518      2931.833       5946.343      -103.23126      374.07712      557.2762     
  39796000   247.91176     -418.11102     -335.08214     -418.06446      0              3339.9885      31.128         21.465467      33.378991      22303.076      5506.1367      2524.9546      1988.8741     -55.657571      269.36134      123.04395    
  39798000   249.9736      -417.04879     -333.32937     -417.01866      0              3554.2991      31.128         21.465467      33.286706      22241.413      1735.5032      2457.0643      6470.3298      847.31062      699.83902      618.96723    
  39800000   245.47341     -417.95043     -335.73818     -417.90148      0              2948.5989      31.128         21.465467      33.313165      22259.093      1422.5371      3700.6969      3722.5626     -1853.4758      108.44618      1947.8942    
  39802000   247.25621     -415.19874     -332.38941     -415.14878      0              3542.2358      31.128         21.465467      33.415998      22327.803      3675.0914      3671.1319      3280.4841     -798.28183     -271.43671     -511.79168    
  39804000   238.28348     -417.09256     -337.28832     -417.06286      0              4244.0655      31.128         21.465467      33.366464      22294.706      5633.3281      4377.379       2721.4893     -1748.7033     -372.12992     -194.62672    
  39806000   244.85323     -417.15556     -335.15102     -417.11323      0              2398.2799      31.128         21.465467      33.405589      22320.848      2631.3401      3157.754       1405.7457     -113.60218     -1130.0623     -513.22801    
  39808000   242.518       -416.01508     -334.79264     -415.96361      0              3016.9779      31.128         21.465467      33.412988      22325.792      2110.762       3684.4266      3255.7451     -139.3535      -825.10726     -194.76393    
  39810000   246.00115     -417.4202      -335.03121     -417.39829      0              5608.4184      31.128         21.465467      33.37897       22303.062      7152.3661      4779.5866      4893.3026      903.36111      1927.0564     -248.62138    
  39812000   242.96477     -415.2835      -333.91143     -415.23149      0              572.31886      31.128         21.465467      33.552666      22419.122      2442.1933     -504.80402     -220.4327      -399.54701     -591.70416      1784.8079    
  39814000   240.91486     -417.76618     -337.08065     -417.71566      0              1220.4006      31.128         21.465467      33.519355      22396.864      1492.9343      1599.697       568.57054      556.24311     -1241.829       587.93113    
  39816000   251.6287      -415.46753     -331.1938      -415.42636      0              4582.8426      31.128         21.465467      33.400059      22317.153      5223.5967      4822.8381      3702.0932      227.26317      811.06029     -516.77128    
  39818000   240.32409     -413.78016     -333.29248     -413.73567      0              3019.5554      31.128         21.465467      33.401986      22318.441      3547.9223      4206.0497      1304.6942     -222.01673     -2419.2089     -1070.0687    
  39820000   241.12359     -415.5489      -334.79346     -415.49868      0              4133.8143      31.128         21.465467      33.399031      22316.466      3015.0883      4720.5748      4665.7797     -419.74183      961.62608     -701.83322    
  39822000   246.05933     -415.65211     -333.24363     -415.60168      0              4932.3496      31.128         21.465467      33.113744      22125.844      4072.6466      4990.8776      5733.5247     -171.7087       1094.2488      1739.8251    
  39824000   240.3999      -416.06273     -335.54967     -416.01094      0              2393.3569      31.128         21.465467      33.337582      22275.407      3084.1798     -215.35892      4311.2499      286.51922      395.46929      1100.4797    
  39826000   248.12509     -414.39692     -331.29659     -414.34823      0              2665.7449      31.128         21.465467      33.210258      22190.333      3364.271       2414.7653      2218.1984      236.51219      1511.067      -55.036893    
  39828000   243.9439      -414.49896     -332.79897     -414.45205      0              3935.4688      31.128         21.465467      33.296056      22247.66       5059.8321      2943.614       3802.9602      1006.3539     -864.39266      1777.3866    
  39830000   241.58121     -416.86084     -335.95214     -416.83739      0              2761.2071      31.128         21.465467      33.306623      22254.721      1508.1012      3814.1441      2961.3759      32.867932      1056.7884     -602.19934    
  39832000   243.68021     -414.59424     -332.98256     -414.54244      0              3555.3757      31.128         21.465467      33.478204      22369.368      5043.7995      3578.2027      2044.1249      879.02728     -1017.2508      177.78461    
  39834000   239.42807     -416.24404     -336.05645     -416.19606      0              2693.7242      31.128         21.465467      33.390303      22310.634      2917.4445      3366.1147      1797.6135     -242.80396     -1328.2353      251.5305     
  39836000   249.50435     -414.36597     -330.80371     -414.3313       0              5040.1603      31.128         21.465467      33.503905      22386.54       5324.0697      4332.5474      5463.864       989.88916     -974.3782       2097.8763    
  39838000   243.98977     -412.80552     -331.09017     -412.76472      0              3124.3906      31.128         21.465467      33.261558      22224.61       3879.4766      2742.6615      2751.0336     -683.00659     -994.55529      224.553      
  39840000   242.71488     -412.05291     -330.76453     -412.01288      0              2209.6715      31.128         21.465467      33.48906       22376.622      919.56213      1986.952       3722.5004     -1127.9404      1502.6401      243.86775    
  39842000   248.47844     -412.89334     -329.67467     -412.86521      0              3004.7665      31.128         21.465467      33.197519      22181.821      1994.5516      2860.023       4159.725      -915.84321     -1641.5943      1152.5612    
  39844000   242.73788     -414.42349     -333.12741     -414.37599      0              2105.7631      31.128         21.465467      33.566603      22428.434      3172.4083      192.40791      2952.4732     -1421.085       527.55788      1054.64      
  39846000   244.19852     -416.60183     -334.81657     -416.57144      0              3999.8473      31.128         21.465467      33.455924      22354.481      3562.4001      3060.7479      5376.394      -891.62525      1194.825      -159.82926    
  39848000   254.69058     -414.35494     -329.05575     -414.30486      0              3550.9518      31.128         21.465467      33.440109      22343.914      2301.804       2750.4862      5600.5651      1704.4681      65.513082      858.72058    
  39850000   242.95467     -413.38912     -332.02044     -413.34829      0              1862.0591      31.128         21.465467      33.415569      22327.517      1732.7528      2139.5982      1713.8262     -1612.4204      61.981655      886.20074    
  39852000   253.23781     -413.54191     -328.72927     -413.49022      0              4550.9658      31.128         21.465467      33.382547      22305.452      3413.3668      5227.9794      5011.5513      130.1611      -328.08291     -200.51778    
  39854000   241.88261     -417.10853     -336.09889     -417.06288      0              2547.4816      31.128         21.465467      33.485737      22374.401      1823.0146      2367.2752      3452.155       863.74602      541.02018     -2044.1722    
  39856000   246.89087     -415.39446     -332.70749     -415.34662      0              3451.7172      31.128         21.465467      33.385164      22307.2        3269.4697      4492.0399      2593.642      -1710.6459     -1594.2198     -469.43447    
  39858000   237.56347     -414.20457     -334.64147     -414.16178      0              5860.7951      31.128         21.465467      33.623341      22466.345      6193.1939      5025.6975      6363.494       718.26128     -275.7962      -658.33058    
  39860000   239.04054     -412.32404     -332.26625     -412.27307      0              3807.7478      31.128         21.465467      33.553397      22419.61       3059.4133      5156.9434      3206.8866      554.86844      442.9975      -333.983      
  39862000   248.45266     -415.26436     -332.05433     -415.21569      0              1291.7295      31.128         21.465467      33.551068      22418.054      1610.4542      1231.373       1033.3612     -155.61717     -652.155        931.24687    
  39864000   246.73794     -413.37663     -330.74088     -413.33668      0              2091.2966      31.128         21.465467      33.690191      22511.013      1520.9672      1548.2993      3204.6233     -1282.2996     -821.7361       989.22559    
  39866000   238.07399     -414.91228     -335.1782      -414.86089      0              3234.158       31.128         21.465467      33.541682      22411.783      4259.4996      2847.4091      2595.5654      884.52365     -1598.1307     -1800.2326    
  39868000   247.73809     -413.58311     -330.6124      -413.5349       0              886.94832      31.128         21.465467      33.764236      22560.488      470.61013      2888.7651     -698.53026      979.63617     -223.32457      1150.5577    
  39870000   245.57819     -416.43085     -334.18352     -416.39185      0              1440.7351      31.128         21.465467      33.501899      22385.201      2665.2225      1592.2776      64.705123      414.59725      918.476       -167.42857    
  39872000   245.77407     -411.69681     -329.38387     -411.70867      0              2230.7305      31.128         21.465467      33.579289      22436.911      2073.7038      3423.7063      1194.7814      1454.5385      1366.7225     -445.9108     
  39874000   246.51917     -411.00396     -328.44148     -410.95287      0              4382.8966      31.128         21.465467      33.544532      22413.687      4468.2569      3518.458       5161.9748      1093.4194      490.38804      760.38853    
  39876000   238.89597     -414.90661     -334.89723     -414.86231      0              4505.5055      31.128         21.465467      33.445539      22347.542      2157.3472      6430.2617      4928.9077      1260.669      -197.41672      366.11329    
  39878000   242.83294     -414.6253      -333.29738     -414.57479      0              3275.2423      31.128         21.465467      33.441856      22345.081      3354.9248      4680.3952      1790.4069     -138.6145       471.52848     -358.22774    
  39880000   241.6056      -416.20252     -335.28565     -416.15227      0              3252.5797      31.128         21.465467      33.417023      22328.488      2588.3411      3177.7967      3991.6013      262.74698      2659.8952      650.36314    
  39882000   249.90654     -415.47504     -331.77809     -415.42407      0              2728.4066      31.128         21.465467      33.380868      22304.33       4936.5994      653.66543      2594.955       1141.3537      534.28658     -550.38247    
  39884000   248.27254     -416.94177     -333.79206     -416.89325      0              3152.5151      31.128         21.465467      33.464075      22359.927      2685.9227      2756.695       4014.9275     -226.34659      662.89542      3051.171     
  39886000   247.16076     -418.11316     -335.3358      -418.08038      0              3697.0574      31.128         21.465467      33.36685       22294.963      4087.1127      3523.236       3480.8234     -1279.5278      1414.7427      908.54623    
  39888000   245.02121     -414.21194     -332.15115     -414.17442      0              2446.6797      31.128         21.465467      33.489387      22376.84       1830.7017      3617.0898      1892.2476     -1153.7915     -111.62912     -160.27526    
  39890000   248.66385     -419.18795     -335.90718     -419.16232      0              3863.3243      31.128         21.465467      33.32243       22265.283      3630.917       4501.4046      3457.6511      879.21235     -404.74702      13.286368    
  39892000   238.37765     -416.40631     -336.57053     -416.36439      0              3174.2593      31.128         21.465467      33.425338      22334.044      4324.3792      1371.2383      3827.1604     -309.98286     -472.21119      953.80044    
  39894000   248.70375     -412.74263     -329.4485      -412.70354      0              1946.1192      31.128         21.465467      33.393373      22312.686      2224.3481      2180.6264      1433.383      -160.07409     -91.062876     -1073.4101    
  39896000   244.89209     -416.27643     -334.25888     -416.23906      0              4457.8506      31.128         21.465467      33.255015      22220.238      5690.5424      5161.1819      2521.8276     -2524.3256     -337.27288     -891.75131    
  39898000   242.92676     -412.41045     -331.05111     -412.35954      0              3489.8127      31.128         21.465467      33.393887      22313.029      3130.2128      3601.6297      3737.5957     -1484.4214      476.61335     -16.28737     
  39900000   244.33192     -414.3828      -332.55286     -414.3507       0              2957.5804      31.128         21.465467      33.392953      22312.405      2058.8873      3313.1221      3500.7317      87.305302     -289.63565     -990.47301    
  39902000   246.40413     -416.84446     -334.3205      -416.79436      0              2623.9996      31.128         21.465467      33.328422      22269.287      2137.4962      1934.3243      3800.1784      595.57231     -1782.4176     -228.32752    
  39904000   240.7363      -413.36636     -332.74064     -413.31539      0              4514.675       31.128         21.465467      33.665022      22494.195      3213.2469      5818.301       4512.4771     -538.40048     -215.52868      556.02596    
  39906000   250.95489     -414.86959     -330.82153     -414.84227      0              823.1181       31.128         21.465467      33.658594      22489.9       -78.758688      786.71541      1761.3976      1125.7078     -823.385       -69.94099     
  39908000   242.42427     -413.7321      -332.54106     -413.68512      0              3469.371       31.128         21.465467      33.657211      22488.976      3021.0156      4069.9378      3317.1597      1767.3497      337.54464     -1039.8644    
  39910000   243.16512     -414.72849     -333.28932     -414.67868      0              142.60259      31.128         21.465467      33.683517      22506.553      532.26781     -316.82818      212.36813      829.67278     -983.31623      29.925459    
  39912000   245.03179     -416.00267     -333.93833     -415.96719      0              3540.9053      31.128         21.465467      33.564124      22426.778      4978.0327      1583.0668      4061.6164     -520.28916      1516.6496      1685.3626    
  39914000   244.45032     -418.16405     -336.29445     -418.12575      0              2340.7898      31.128         21.465467      33.610824      22457.981      2495.3302      2821.741       1705.2982      1580.8688     -485.68306      518.38711    
  39916000   239.1724      -417.27645     -337.17449     -417.23291      0              4872.5343      31.128         21.465467      33.552055      22418.713      5041.3956      5687.5326      3888.6747      59.862348      142.97625     -537.95963    
  39918000   241.8789      -414.41511     -333.40671     -414.39248      0              2576.7876      31.128         21.465467      33.616277      22461.625      3149.9118      2216.8208      2363.6303      1840.8098      155.66475      275.16668    
  39920000   241.26136     -414.62095     -333.81937     -414.57904      0              2869.2511      31.128         21.465467      33.648432      22483.11       3944.2359      2900.67        1762.8473      196.06068     -259.63008     -1385.485     
  39922000   252.05262     -415.99676     -331.58105     -415.96183      0              1657.5936      31.128         21.465467      33.665969      22494.828      1956.8149      1863.394       1152.5719      1230.6669      784.12878     -208.44716    
  39924000   248.28189     -413.72933     -330.57649     -413.68811      0              2827.2671      31.128         21.465467      33.907405      22656.15       2263.5289      5003.4248      1214.8476     -838.32828      45.634401     -846.3456     
  39926000   239.8713      -416.62338     -336.28735     -416.57262      0              3777.2137      31.128         21.465467      33.547187      22415.46       4104.1953      4032.6872      3194.7587      368.49879     -1800.904       681.63758    
  39928000   243.57661     -414.53599     -332.95901     -414.48554      0              2103.0782      31.128         21.465467      33.697777      22516.081      1279.7227      1668.5009      3361.0109     -798.58784     -262.42283     -27.663186    
  39930000   249.41622     -413.04581     -329.51307     -413.00438      0              2057.9394      31.128         21.465467      33.752929      22552.933      455.66284      3886.0828      1832.0726     -1222.8738      36.805755     -831.39881    
  39932000   240.03361     -417.06295     -336.67256     -417.01248      0              4453.0554      31.128         21.465467      33.703607      22519.977      4157.5738      5432.6455      3768.9468     -837.19472      194.19812      436.12547    
  39934000   249.06248     -416.58217     -333.1679      -416.53495      0              2257.23        31.128         21.465467      33.531458      22404.951      4060.7279      2431.9703      278.99194     -65.881852      757.1396      -159.76708    
  39936000   243.60442     -418.90449     -337.31819     -418.85566      0              2494.5794      31.128         21.465467      33.575446      22434.343      2555.0062      2068.0074      2860.7245     -1658.7123     -1036.9616      725.89027    
  39938000   238.18131     -413.56794     -333.79792     -413.51816      0              3012.0563      31.128         21.465467      33.667438      22495.809      4165.279       2261.6325      2609.2574     -977.73269      515.15477     -897.35963    
  39940000   248.26881     -414.01713     -330.86867     -413.97358      0              4257.9362      31.128         21.465467      33.850002      22617.794      4772.3024      5972.0742      2029.4319      1250.0778     -839.43867      404.95366    
  39942000   242.24502     -415.01055     -333.87954     -414.9628       0              3734.2505      31.128         21.465467      33.585008      22440.732      3753.7847      4136.548       3312.4188     -1050.6398      1591.3844     -393.96204    
  39944000   243.26382     -415.83721     -334.36498     -415.78678      0              3426.0102      31.128         21.465467      33.501042      22384.628      3599.7956      3912.5108      2765.7242      1280.9722      1909.427       484.55188    
  39946000   245.64897     -417.16909     -334.89805     -417.12983      0              4605.9179      31.128         21.465467      33.376149      22301.177      5784.8048      4667.4552      3365.4936      566.61923     -113.64107      1074.9386    
  39948000   246.93346     -414.21183     -331.51059     -414.17108      0              2458.0456      31.128         21.465467      33.343466      22279.339      2546.0044      2766.0901      2062.0422     -283.50843     -100.2965       101.11787    
  39950000   248.71454     -416.47462     -333.17688     -416.42569      0              3591.5285      31.128         21.465467      33.57855       22436.417      4473.9732      3342.5707      2958.0415     -570.7162      -745.55562     -522.50288    
  39952000   249.65267     -414.82137     -331.20944     -414.78293      0              2685.4247      31.128         21.465467      33.548922      22416.62       1179.0857      3656.0706      3221.1179     -1848.7194      651.7666       2018.443     
  39954000   248.8259      -415.04433     -331.7093      -414.99968      0              1172.981       31.128         21.465467      33.410458      22324.101      369.3573       1920.6096      1228.9761     -693.77628      205.87105      7.1088078    
  39956000   246.73366     -416.45671     -333.82239     -416.41429      0              4452.1838      31.128         21.465467      33.492669      22379.033      3480.9294      4877.4007      4998.2214     -446.192       -282.08724     -889.90594    
  39958000   243.58049     -415.20341     -333.62512     -415.1654       0              3174.9514      31.128         21.465467      33.25816       22222.339      709.51084      4436.2969      4379.0463      193.71359      1960.0448      372.71622    
  39960000   245.13849     -414.38821     -332.28813     -414.3404       0              2825.5213      31.128         21.465467      33.503115      22386.013      2626.2515      2222.8301      3627.4823      198.52975      627.73632      1955.9596    
  39962000   240.33955     -415.51545     -335.0226      -415.47931      0              4038.999       31.128         21.465467      33.551837      22418.568      3890.2027      4293.5044      3933.29       -198.31929      254.99817      626.98448    
  39964000   249.84562     -413.69706     -330.0205      -413.64919      0              3620.368       31.128         21.465467      33.419008      22329.815      3299.2218      4324.2003      3237.682       398.92554      535.53213      940.82914    
  39966000   242.49983     -413.81923     -332.60287     -413.78626      0              3469.6072      31.128         21.465467      33.665974      22494.831      5451.1799      3829.8744      1127.7673     -718.19265     -334.55265      183.07349    
  39968000   244.59512     -412.95983     -331.04174     -412.91201      0              3255.5117      31.128         21.465467      33.596519      22448.423      2416.9734      2107.35        5242.2117     -846.26173     -811.14984     -356.64424    
  39970000   242.71023     -415.73062     -334.44381     -415.68731      0              2822.4864      31.128         21.465467      33.727033      22535.63       2242.2499      3968.4125      2256.7968     -1100.0605      232.19653      308.14549    
  39972000   252.19314     -415.61864     -331.15587     -415.56836      0              2892.7953      31.128         21.465467      33.483398      22372.838      2700.3057      3014.5043      2963.5757     -247.03526     -100.5164       2710.9436    
  39974000   238.33487     -413.69127     -333.86982     -413.64135      0              2765.5572      31.128         21.465467      33.622441      22465.744      2721.0247      3556.3282      2019.3188      305.70119     -511.37886      974.92884    
  39976000   235.64471     -414.16102     -335.24053     -414.11403      0              3003.2616      31.128         21.465467      33.478419      22369.511      3092.4493      3340.8263      2576.5092     -1566.8727     -622.0875      -626.62305    
  39978000   244.69403     -413.27861     -331.32739     -413.24062      0              1590.7574      31.128         21.465467      33.573872      22433.291      977.14672      1478.9054      2316.2199      773.8644       777.53406     -685.13826    
  39980000   240.55627     -412.5741      -332.00867     -412.52394      0              1982.0593      31.128         21.465467      33.533651      22406.417      1605.2022      3609.915       731.06073      1227.9812      595.34124      189.08556    
  39982000   254.23357     -414.35374     -329.2076      -414.30365      0              4837.01        31.128         21.465467      33.566607      22428.436      5664.2588      3065.9641      5780.8071      415.83406      351.73657      817.84648    
  39984000   240.11387     -415.93857     -335.5213      -415.8891       0              1864.856       31.128         21.465467      33.463037      22359.233      2651.2145      1892.9726      1050.3807      949.48086      469.132       -206.49961    
  39986000   244.03793     -412.88133     -331.14985     -412.85273      0              898.04686      31.128         21.465467      33.52267       22399.079      106.43927      53.298393      2534.4029     -692.10696      196.55201      185.28001    
  39988000   246.88529     -414.05592     -331.37082     -414.02174      0              3939.8861      31.128         21.465467      33.660248      22491.005      4046.1731      3172.8314      4600.6537      66.317252      103.79407      1028.7275    
  39990000   239.96378     -414.30302     -333.93603     -414.33338      0              2288.7699      31.128         21.465467      33.638347      22476.372      1611.6135      1760.5385      3494.1577     -1342.698      -234.62205     -78.707585    
  39992000   239.77084     -415.38253     -335.08015     -415.35914      0              1471.4361      31.128         21.465467      33.692011      22512.229      359.37926      2653.4971      1401.432       743.39608     -892.46277      117.90877    
  39994000   248.41602     -415.2458      -332.04803     -415.20344      0              4219.5603      31.128         21.465467      33.624606      22467.191      2910.7291      6374.5398      3373.412       1281.662       1006.5848     -232.45289    
  39996000   248.73659     -415.43901     -332.13389     -415.39164      0              3969.7295      31.128         21.465467      33.746109      22548.376      3135.6934      4988.6495      3784.8456     -667.25893      527.55284      1679.4223    
  39998000   241.65839     -415.45219     -334.51765     -415.41214      0              350.13844      31.128         21.465467      33.664914      22494.123      1417.1917      348.54939     -715.32573      196.3615       405.40565     -242.91721    
  40000000   246.91364     -413.88113     -331.18653     -413.83895      0              2474.0042      31.128         21.465467      33.43383       22339.718      1127.7376      3152.9198      3141.3552      944.31234     -409.12319      397.00532    
  40002000   239.1959      -416.50802     -336.39819     -416.46157      0              2714.0607      31.128         21.465467      33.446583      22348.239      3426.8233      2730.427       1984.9317      179.12635     -1131.1889     -899.88578    
  40004000   248.42442     -415.05232     -331.85174     -415.00486      0              2477.095       31.128         21.465467      33.408289      22322.652      4177.942       346.62327      2906.7196     -144.22618     -1357.251       345.69747    
  40006000   241.74337     -414.14626     -333.18325     -414.10882      0              2569.7929      31.128         21.465467      33.476832      22368.451      3972.0304      2887.8106      849.53785     -635.28051     -1366.9506      702.66321    
  40008000   246.8645      -414.21168     -331.53354     -414.16236      0              1994.4246      31.128         21.465467      33.401785      22318.306      2738.0995      4101.544      -856.36972     -331.69422     -1257.0972     -908.35353    
  40010000   239.94518     -414.99132     -334.63055     -414.94728      0              2453.3227      31.128         21.465467      33.27537       22233.839      245.27378      3544.7087      3569.9857      1236.0755      307.31657      874.42708    
  40012000   245.55503     -415.66944     -333.42986     -415.62208      0              2942.4147      31.128         21.465467      33.459131      22356.624      2125.6956      4160.173       2541.3755     -280.1346       1127.0429      236.20104    
  40014000   245.34225     -417.04999     -334.88168     -417.00454      0              3697.6951      31.128         21.465467      33.577733      22435.871      4009.7018      3621.6452      3461.7384     -317.6801      -593.85776      1464.6017    
  40016000   238.84823     -417.38105     -337.38766     -417.33304      0              2160.1622      31.128         21.465467      33.452093      22351.921      2700.4228      3592.3005      187.76325      1000.8598      605.77925      291.05359    
  40018000   246.06017     -414.67704     -332.26828     -414.632        0              3538.9528      31.128         21.465467      33.536691      22408.447      1708.2091      4140.9571      4767.6923     -875.98177     -191.5944       449.19164    
  40020000   244.11179     -416.78148     -335.02526     -416.74635      0              3090.1031      31.128         21.465467      33.522815      22399.176     -236.41252      4291.8938      5214.8281      856.88611      297.04419     -631.87433    
  40022000   245.03937     -415.85111     -333.78423     -415.82822      0              2863.9414      31.128         21.465467      33.43115       22337.927      1816.1068      3884.9522      2890.7653     -159.30445      774.54094     -438.99577    
  40024000   242.59888     -416.29494     -335.04541     -416.24717      0              3080.8091      31.128         21.465467      33.464838      22360.437      3742.1999      3168.6888      2331.5388      375.43987      43.600833     -816.82975    
  40026000   248.77621     -416.71829     -333.39989     -416.68147      0              4438.1933      31.128         21.465467      33.440743      22344.337      4977.5933      3413.9484      4923.0381     -562.73267      1835.7538      413.62252    
  40028000   245.76006     -417.6662      -335.35795     -417.63029      0              2612.7868      31.128         21.465467      33.347504      22282.037      1586.0354      803.52416      5448.8007     -19.673605      547.22276      516.21747    
  40030000   253.62426     -417.13392     -332.19185     -417.10521      0              4409.8289      31.128         21.465467      33.393679      22312.89       3171.794       4657.149       5400.5437      523.28804      94.850584     -773.96199    
  40032000   246.76278     -416.02849     -333.38441     -415.97956      0              4241.6952      31.128         21.465467      33.35198       22285.028      3343.6264      5684.7056      3696.7538      127.06674     -381.88558     -251.33715    
  40034000   254.70087     -414.30266     -329.00002     -414.2673       0              4894.5954      31.128         21.465467      33.298877      22249.545      4685.5505      5757.7946      4240.441       819.1139       694.34359      359.86843    
  40036000   245.98341     -416.07749     -333.69444     -416.03327      0              2607.1065      31.128         21.465467      33.362474      22292.04       724.70402      2569.5225      4527.0928      900.94261     -351.40923      1130.8481    
  40038000   236.082       -416.81608     -337.74914     -416.78139      0              3646.7057      31.128         21.465467      33.371359      22297.977      3594.0967      3357.9353      3988.085      -795.51626     -466.12316      696.74082    
  40040000   247.14902     -413.06833     -330.2949      -413.02439      0              4680.6013      31.128         21.465467      33.434689      22340.292      5444.2677      3322.1308      5275.4053      371.41267      209.4258      -460.42405    
  40042000   249.8894      -415.25905     -331.56783     -415.22209      0              813.07359      31.128         21.465467      33.515317      22394.166      151.99231      416.32026      1870.9082      342.35715     -628.51372      560.71113    
  40044000   242.57381     -414.67218     -333.43105     -414.63832      0              328.5189       31.128         21.465467      33.693963      22513.533     -586.78105      564.62787      1007.7099     -389.70637     -278.9702       1667.3013    
  40046000   251.19485     -416.43939     -332.31096     -416.40087      0              3022.2061      31.128         21.465467      33.463772      22359.725      3078.8014      4396.464       1591.3528      2227.0905      551.83806     -408.07579    
  40048000   251.03565     -417.01678     -332.94167     -416.97221      0              1345.0323      31.128         21.465467      33.561587      22425.083      4509.2092      298.53574     -772.64798      10.310331     -864.52301     -22.173098    
  40050000   243.31989     -414.54531     -333.05431     -414.515        0              4209.7835      31.128         21.465467      33.288842      22242.84       5785.5813      1737.0092      5106.7601     -1452.0004      124.7204       204.6935     
  40052000   246.46175     -416.25805     -333.71479     -416.21829      0              4864.457       31.128         21.465467      33.262153      22225.007      6704.242       4552.7657      3336.3631     -91.209741      1807.5774     -87.416079    
  40054000   247.80397     -416.69399     -333.70121     -416.65709      0              3099.1617      31.128         21.465467      33.239138      22209.63       3597.5833      1989.782       3710.1196      22.649865      575.2756       554.69497    
  40056000   245.25031     -415.17559     -333.03806     -415.15092      0              6726.5069      31.128         21.465467      33.259124      22222.984      5330.0647      8658.6926      6190.7633     -2206.7763     -22.393192      95.427683    
  40058000   243.5373      -417.8406      -336.27678     -417.8168       0              2306.409       31.128         21.465467      33.398685      22316.235      2471.6095      2648.8449      1798.7727      511.84304      1505.2704      377.223      
  40060000   245.28008     -416.89823     -334.75073     -416.86447      0              3967.5847      31.128         21.465467      33.417331      22328.694      5040.4887      5582.832       1279.4333      1441.9722     -81.420295      603.26804    
  40062000   242.24647     -416.70099     -335.56949     -416.6536       0              4078.2071      31.128         21.465467      33.352744      22285.538      2690.4838      5826.601       3717.5364     -620.70859      1010.4032      1366.6071    
  40064000   242.31114     -417.08981     -335.93665     -417.06587      0              2841.7008      31.128         21.465467      33.542264      22412.171      2736.139       3837.4885      1951.4748     -1461.1933     -706.48893      1053.2196    
  40066000   248.56287     -419.19827     -335.95133     -419.16669      0              2572.9355      31.128         21.465467      33.501486      22384.924      4137.5166      3369.0896      212.2004       63.604989     -171.71862     -476.37073    
  40068000   243.57823     -415.15435     -333.57683     -415.12378      0              2558.6433      31.128         21.465467      33.508198      22389.409      3094.2983      3329.125       1252.5065     -1329.7249      1594.0226     -2594.6636    
  40070000   247.69692     -417.59133     -334.6344      -417.55002      0              3498.7181      31.128         21.465467      33.534759      22407.157      4232.3599      3948.2158      2315.5785     -356.77587      560.04358     -1762.5841    
  40072000   254.53905     -414.6395      -329.39105     -414.60778      0              5375.6099      31.128         21.465467      33.468872      22363.133      4142.1819      6717.6338      5267.0138      173.04185      1702.0618     -622.7511     
  40074000   243.18399     -412.75239     -331.3069      -412.72174      0              3135.7836      31.128         21.465467      33.559231      22423.508      1549.0828      4896.8966      2961.3713      1083.773      -342.61292     -738.08345    
  40076000   238.36982     -418.37495     -338.54179     -418.35092      0              1920.7958      31.128         21.465467      33.497443      22382.223      2915.2559      2084.1884      762.94329     -608.43296     -680.00884     -418.3679     
  40078000   252.99759     -416.1304      -331.39822     -416.10166      0              4905.6595      31.128         21.465467      33.42288       22332.402      5362.4784      5067.4023      4287.0977     -131.27513     -512.8185       664.60348    
  40080000   244.70769     -417.18501     -335.22922     -417.16426      0              3878.7319      31.128         21.465467      33.401244      22317.945      3484.0667      3301.4918      4850.6373      172.0911      -989.14533     -2014.6472    
  40082000   253.86949     -417.67372     -332.64952     -417.66087      0              2320.9712      31.128         21.465467      33.363221      22292.539      3307.7715      839.98921      2815.1529     -1282.6893     -267.20636     -122.47294    
  40084000   250.39965     -417.9491      -334.087       -417.90928      0              3873.7932      31.128         21.465467      33.758859      22556.895      4843.883       5444.838       1332.6586      182.5565      -473.97396     -65.777632    
  40086000   246.17566     -415.50653     -333.05909     -415.4821       0              2555.0638      31.128         21.465467      33.664509      22493.852      3668.4776      1418.0616      2578.6522      515.84559     -1376.4892     -331.22509    
  40088000   242.77556     -417.57474     -336.26604     -417.54411      0              1892.3919      31.128         21.465467      33.785333      22574.585      3974.5152     -1217.6286      2920.289       201.87462      213.32238     -1403.789     
  40090000   243.87145     -412.71062     -331.03489     -412.67609      0              3413.0533      31.128         21.465467      33.725101      22534.338      2077.4449      4869.1448      3292.5701      1613.5466      268.72582     -1091.0696    
  40092000   235.89295     -414.65582     -335.6522      -414.61788      0              657.39556      31.128         21.465467      33.909108      22657.288      1934.9324     -637.38041      674.63472      138.23255     -987.11687     -1134.3929    
  40094000   235.28576     -415.47919     -336.67892     -415.44613      0              4186.6875      31.128         21.465467      33.816847      22595.641      5295.5288      3358.9391      3905.5947      746.57821     -258.63915     -306.99837    
  40096000   247.8912      -416.41579     -333.39379     -416.3855       0              2546.9023      31.128         21.465467      33.648337      22483.047      2692.6151      2413.0769      2535.0149     -849.87447      1274.3444     -485.29388    
  40098000   250.70724     -417.86515     -333.90003     -417.83591      0              2878.5287      31.128         21.465467      33.628742      22469.954      3481.3298      3057.9456      2096.3108      1295.9637      287.04442     -399.99849    
  40100000   245.60676     -414.56724     -332.31033     -414.53289      0              3010.2281      31.128         21.465467      33.4243        22333.351      3297.8046      2172.364       3560.5157     -2479.2122      740.28919     -996.24244    
  40102000   246.7944      -413.01007     -330.3554      -412.96458      0              2650.8131      31.128         21.465467      33.460948      22357.838      2075.1726      1275.0031      4602.2635      1245.9697     -615.49129      924.49971    
  40104000   245.49319     -415.72066     -333.50179     -415.68682      0              2299.3856      31.128         21.465467      33.880272      22638.02       2983.5306      2253.6724      1660.9538     -759.35746      256.46975      922.66378    
  40106000   243.45514     -414.47185     -332.93555     -414.4328       0              1717.3622      31.128         21.465467      33.836995      22609.104     -1042.4824      3079.6659      3114.9031     -492.26091      1406.187      -802.20762    
  40108000   239.22862     -418.59875     -338.47797     -418.56474      0              3623.9525      31.128         21.465467      33.731762      22538.789      3191.1225      5595.9356      2084.7994     -128.97207     -29.343775     -1100.4757    
  40110000   246.89304     -413.6804      -330.9927      -413.63166      0              1695.6748      31.128         21.465467      33.906133      22655.3        1129.3001      2172.7125      1785.0118      428.56824      411.59433     -245.79111    
  40112000   251.68704     -420.07296     -335.77969     -420.05174      0              3401.4465      31.128         21.465467      33.536224      22408.135      2402.7809      3124.9282      4676.6304     -1757.6398     -110.16211     -445.32013    
  40114000   243.72038     -414.29465     -332.66952     -414.24717      0              3391.7846      31.128         21.465467      33.674891      22500.79       4557.4118      2500.4588      3117.4833     -1408.6167      385.94546     -656.18622    
  40116000   244.32568     -415.09012     -333.26227     -415.0413       0              3501.0555      31.128         21.465467      33.732706      22539.42       2002.092       4101.1708      4399.9037      634.44898     -496.67863      193.15349    
  40118000   249.08319     -415.77371     -332.3525      -415.7432       0              3634.0723      31.128         21.465467      33.628272      22469.64       4019.92        2849.3365      4032.9604      1915.1757      474.39881     -422.59271    
  40120000   251.36701     -415.57045     -331.38436     -415.55324      0              2968.6475      31.128         21.465467      33.591307      22444.941      4239.5645      2539.2171      2127.1608      832.6277       56.390378     -208.69389    
  40122000   238.65612     -419.47468     -339.54564     -419.4394       0              3172.7702      31.128         21.465467      33.624511      22467.127      4301.7661      3443.5136      1773.0308      896.33519      190.87353     -550.38266    
  40124000   246.72148     -414.48675     -331.85651     -414.45558      0              1224.9117      31.128         21.465467      33.845604      22614.856      2063.834       1961.5634     -350.66225     -463.98999     -243.12961     -1491.8569    
  40126000   241.88158     -413.8559      -332.8466      -413.83867      0              2394.8775      31.128         21.465467      33.624827      22467.338      2425.1186      3722.1795      1037.3343     -99.374838      2049.0719     -724.79733    
  40128000   248.85004     -413.98424     -330.64111     -413.94812      0              4797.386       31.128         21.465467      33.587834      22442.62       4697.8112      4191.0333      5503.3135     -709.23916     -81.675497      626.48512    
  40130000   247.08975     -417.42314     -334.66957     -417.39065      0              4228.7512      31.128         21.465467      33.575126      22434.129      3729.5841      6267.075       2689.5946      200.34093      859.21691     -307.44428    
  40132000   244.5093      -414.47021     -332.58086     -414.44116      0              2665.4049      31.128         21.465467      33.487155      22375.349      3611.8748      2755.9818      1628.358       368.67953      65.197019      337.19647    
  40134000   241.00515     -418.14306     -337.42729     -418.10195      0              4041.818       31.128         21.465467      33.452318      22352.071      3279.2144      4022.8235      4823.416       936.37687      2018.6995     -1608.6303    
  40136000   238.03593     -414.11431     -334.39298     -414.0817       0              3437.4864      31.128         21.465467      33.527236      22402.13       2901.2822      3272.769       4138.4079      1730.6383      982.41062     -210.40782    
  40138000   248.85217     -415.23687     -331.89303     -415.19526      0              3034.3192      31.128         21.465467      33.53663       22408.407      5204.1695      2739.3618      1159.4262      395.26701     -32.808643     -209.9271     
  40140000   246.806       -415.20793     -332.54939     -415.17146      0              3030.7653      31.128         21.465467      33.641304      22478.348      2745.8354      3766.541       2579.9195      391.31813      1017.5187      38.048477    
  40142000   250.98207     -415.59022     -331.53305     -415.55241      0              2098.4447      31.128         21.465467      33.776776      22568.867      1216.8895      3034.3977      2044.0468     -1489.0806      1050.1325      660.02497    
  40144000   240.41782     -417.56222     -337.04316     -417.53438      0              1759.9979      31.128         21.465467      33.815882      22594.997      1353.4618      2607.3442      1319.1876     -1172.2119      920.80583     -843.12038    
  40146000   247.63984     -417.05944     -334.12163     -417.02651      0              4188.1685      31.128         21.465467      33.585317      22440.939      4228.4073      5212.4124      3123.686      -737.06498      1366.1497      507.76425    
  40148000   250.22743     -416.1185      -332.31407     -416.08334      0              3184.7717      31.128         21.465467      33.49537       22380.837      2164.9318      3830.0298      3559.3536      1154.8744      868.58894      805.35355    
  40150000   243.26166     -415.6275      -334.156       -415.60456      0              2689.4742      31.128         21.465467      33.443849      22346.413      2774.4398      3357.9664      1936.0164      399.64811      449.6364       715.92319    
  40152000   243.54196     -418.01172     -336.44635     -417.98116      0              3160.4821      31.128         21.465467      33.552096      22418.741      2383.5028      3276.7034      3821.2403      692.66053     -836.00807     -818.44343    
  40154000   240.75486     -415.49886     -334.86692     -415.45757      0              2660.2942      31.128         21.465467      33.376626      22301.496      3750.4633      2082.1884      2148.231       162.23922     -112.69029      812.91339    
  40156000   242.68971     -416.44776     -335.16781     -416.43206      0              4523.4941      31.128         21.465467      33.318918      22262.936      4771.7266      5563.5937      3235.162      -721.69558     -825.7276       689.69398    
  40158000   250.49794     -417.93136     -334.03634     -417.89709      0              3120.6291      31.128         21.465467      33.392185      22311.892      3414.8736      2879.421       3067.5927      624.76737     -651.6774       1358.5918    
  40160000   247.67113     -416.831       -333.88271     -416.81773      0              4129.4278      31.128         21.465467      33.252453      22218.526      4612.1943      5155.2939      2620.7953      769.05032     -271.05971     -674.09191    
  40162000   244.68105     -418.82342     -336.87655     -418.79784      0              2643.7473      31.128         21.465467      33.362554      22292.093      4821.4255     -333.43353      3443.25       -2028.0982      824.62734      482.28125    
  40164000   242.1019      -418.30912     -337.22604     -418.30054      0              1800.0305      31.128         21.465467      33.29126       22244.456      2977.5853      1090.885       1331.6214     -1259.7538      1540.7196     -125.55428    
  40166000   248.53665     -416.92402     -333.68585     -416.90622      0              3966.7879      31.128         21.465467      33.27395       22232.89       5815.1845      3499.1996      2585.9796      1225.8862     -83.911161     -679.91749    
  40168000   249.02961     -416.4746      -333.07134     -416.45297      0              3243.1532      31.128         21.465467      33.277202      22235.063      3485.297       3765.4059      2478.7565      738.11008      373.41872     -1384.0712    
  40170000   247.08048     -417.64772     -334.89725     -417.60872      0              2640.7657      31.128         21.465467      33.552438      22418.97       5103.1126      1432.165       1387.0196      2572.9534      635.03731     -692.88593    
  40172000   246.03934     -417.98361     -335.58183     -417.97543      0              3076.6185      31.128         21.465467      33.464143      22359.973      3476.2661      4356.1059      1397.4834      1205.049       385.49997     -1240.8348    
  40174000   242.8149      -416.65262     -335.33075     -416.63521      0              2679.0715      31.128         21.465467      33.502089      22385.327      3466.0631      1318.6615      3252.4898     -424.02159     -245.04796     -755.35455    
  40176000   243.74312     -418.42994     -336.79719     -418.42036      0              2094.9708      31.128         21.465467      33.693761      22513.398      1035.445       2493.0821      2756.3853      913.73491      913.87697      1726.9161    
  40178000   244.85518     -419.22334     -337.21815     -419.20969      0              1121.2094      31.128         21.465467      33.745927      22548.254      1143.8432      854.51514      1365.27        1082.5836      300.51854      1111.6263    
  40180000   243.80463     -417.96581     -336.31246     -417.93372      0              3292.3744      31.128         21.465467      33.502349      22385.501      5659.1002      642.7606       3575.2625     -28.64948      -250.42438      648.47605    
  40182000   245.85363     -418.02305     -335.68346     -418.00877      0              2741.143       31.128         21.465467      33.593755      22446.577      2585.081       2935.5817      2702.7663      1842.5405      1186.9997     -57.604404    
  40184000   245.33328     -416.06187     -333.89656     -416.04325      0              2984.1271      31.128         21.465467      33.623296      22466.315      2516.3914      4070.3826      2365.6073     -1348.9337      713.75048      74.455715    
  40186000   248.67245     -420.65141     -337.36776     -420.6402       0              3175.2393      31.128         21.465467      33.325678      22267.454      4162.0126      3364.4212      1999.2841      1379.4812     -2187.7487     -898.74687    
  40188000   246.27018     -416.35466     -333.87557     -416.33318      0              3583.1891      31.128         21.465467      33.245317      22213.758      4077.3167      2609.0486      4063.2018      1655.4674     -1840.9533     -326.02757    
  40190000   243.87252     -414.51625     -332.84017     -414.50027      0              2870.1467      31.128         21.465467      33.348879      22282.956      3219.9375      2274.2933      3116.2095     -825.14609      1621.814       79.502368    
  40192000   242.74441     -417.13268     -335.83441     -417.12399      0              2398.294       31.128         21.465467      33.081602      22104.368      743.99025      2154.9284      4295.9633      1060.1419      2128.9999      2450.115     
  40194000   241.90984     -415.30538     -334.28662     -415.29246      0              2106.7055      31.128         21.465467      33.428764      22336.333      1342.0531      2680.4619      2297.6014      222.68686      516.21811      476.22625    
  40196000   244.45854     -417.6694      -335.79705     -417.66596      0              4664.8959      31.128         21.465467      33.212991      22192.159      4403.2875      5543.9898      4047.4104      679.44241      189.52326      327.62357    
  40198000   241.15727     -416.63349     -335.86678     -416.62852      0              2776.536       31.128         21.465467      33.373389      22299.333      1728.7452      4056.7788      2544.0839      689.3902       486.55668      934.8541     
  40200000   246.92307     -418.37987     -335.68212     -418.37247      0              4190.5976      31.128         21.465467      33.469343      22363.447      3694.9669      3101.1647      5775.6613     -834.29832      2415.5607      1912.8777    
  40202000   242.42933     -415.67872     -334.48598     -415.65981      0              2225.1725      31.128         21.465467      33.347123      22281.783      1599.6739      2437.5491      2638.2945      455.69022      122.78218     -172.17885    
  40204000   246.60617     -414.16402     -331.5724      -414.14064      0              2581.3811      31.128         21.465467      33.650332      22484.38       2424.9453      3056.3245      2262.8736     -251.9048       1509.6559      2115.6603    
  40206000   241.09718     -414.14353     -333.39694     -414.10594      0              2163.0885      31.128         21.465467      33.422233      22331.969      3194.6064      2243.7881      1050.8712      1173.8108     -404.82729     -80.716988    
  40208000   245.63862     -415.37592     -333.10835     -415.35894      0              3606.2359      31.128         21.465467      33.212734      22191.987      1196.7921      4048.6742      5573.2413     -535.60585      1255.9959      121.39989    
  40210000   246.94719     -415.55105     -332.84522     -415.54695      0              3544.4805      31.128         21.465467      33.339677      22276.807      4311.7085      4048.0615      2273.6714     -540.58141      183.98774      239.8078     
  40212000   249.70247     -415.54683     -331.91822     -415.53138      0              3817.217       31.128         21.465467      33.187433      22175.081      2687.9316      5671.9139      3091.8054     -1292.1215      583.0957      -1257.9087    
  40214000   250.99372     -416.61976     -332.55869     -416.61297      0              4781.8891      31.128         21.465467      33.161096      22157.484      4566.1643      6488.6029      3290.9        -198.70584     -950.24115     -994.2642     
  40216000   244.13857     -416.92119     -335.156       -416.90997      0              2803.0741      31.128         21.465467      33.32121       22264.468      4502.4928      2453.6434      1453.0862      1346.572      -421.41393      352.74006    
  40218000   249.70257     -417.89911     -334.27046     -417.89144      0              3647.6717      31.128         21.465467      33.210674      22190.61       3692.3428      4430.8753      2819.7971      1210.6087      129.69043     -615.67201    
  40220000   247.09991     -418.50575     -335.74877     -418.5021       0              2434.6566      31.128         21.465467      33.337812      22275.561      2575.0477      1815.4978      2913.4244      1069.9199      461.02604     -495.66781    
  40222000   240.96952     -417.1423      -336.43847     -417.13806      0              4977.213       31.128         21.465467      33.370939      22297.696      6414.2157      4341.5758      4175.8477     -1134.3298     -1297.6692      72.748227    
  40224000   247.5868      -420.04127     -337.12123     -420.03643      0              1911.4635      31.128         21.465467      33.245314      22213.756      1346.6325      4040.3241      347.43389      109.28998      469.85254     -2475.0868    
  40226000   251.40666     -421.00417     -336.8048      -421.00064      0              4248.5829      31.128         21.465467      33.263423      22225.856      4156.6096      4079.8673      4509.2718      1510.1687     -664.04557     -317.98424    
  40228000   240.51617     -417.27984     -336.72784     -417.26666      0              3195.7731      31.128         21.465467      33.45191       22351.799      4045.9802      3424.8517      2116.4873      971.39498     -299.06244     -368.63674    
  40230000   244.58474     -415.87606     -333.96145     -415.8711       0              2133.7113      31.128         21.465467      33.422061      22331.855      2183.379       2022.6597      2195.0953     -810.42872     -1041.3214     -1337.1373    
  40232000   239.58605     -416.51242     -336.27193     -416.50892      0              822.18621      31.128         21.465467      33.20519       22186.946      683.8527       815.20272      967.5032       811.85094     -891.41723      1144.8096    
  40234000   242.97424     -419.53931     -338.16406     -419.52995      0              4980.6821      31.128         21.465467      33.114886      22126.607      4087.6337      5971.6674      4882.7452      378.14181     -1170.4907      789.69623    
  40236000   240.11714     -416.59173     -336.17337     -416.58836      0              3297.5827      31.128         21.465467      33.253583      22219.281      4068.6348      1274.0677      4550.0456     -34.271149     -22.405569      452.61629    
  40238000   246.34914     -416.46677     -333.96124     -416.46335      0              2802.6818      31.128         21.465467      33.237867      22208.78       3168.3159      2393.6932      2846.0364      43.167947     -2259.0692     -662.22103    
  40240000   246.30932     -416.39167     -333.89946     -416.37282      0              4070.6568      31.128         21.465467      33.412551      22325.5        5476.8366      3566.7207      3168.4131      1777.4141     -2555.0766      208.58733    
  40242000   236.30939     -415.92066     -336.77756     -415.9038       0              3007.1803      31.128         21.465467      33.395538      22314.132      3197.7839      4140.4861      1683.2708     -435.34728     -659.73581     -2130.5221    
  40244000   242.27417     -417.54193     -336.40115     -417.53463      0              3822.8132      31.128         21.465467      33.240309      22210.412      3960.1239      4552.6873      2955.6285     -291.65515     -1991.0645     -2352.7937    
[...]
  47060000   239.93483     -417.72266     -337.36536     -417.70912      0              1791.3986      31.128         21.465467      33.31848       22262.644      849.14495      2439.9616      2085.0892     -933.66681      1045.5698      730.13261    
  47062000   243.02304     -416.14754     -334.75596     -416.12088      0              3816.6367      31.128         21.465467      33.302167      22251.744      6197.2868      2405.0144      2847.609       291.06162      513.81573     -1178.2044    
  47064000   241.13571     -417.74517     -336.98568     -417.72309      0              4909.2983      31.128         21.465467      33.231668      22204.638      4325.7514      5312.6328      5089.5106      1104.8263      361.99577      1033.3735    
  47066000   236.40367     -417.50677     -338.3321      -417.48561      0              2858.4011      31.128         21.465467      33.303969      22252.948      1785.1154      3415.5456      3374.5422     -1774.9418     -740.6366      -1589.9812    
  47068000   240.85144     -414.0603      -333.39602     -414.03811      0              2433.1258      31.128         21.465467      33.344925      22280.314      1872.3919      3295.3179      2131.6674      339.39178      701.01364     -437.12656    
  47070000   250.62094     -415.60833     -331.67211     -415.5955       0              2896.1736      31.128         21.465467      33.300513      22250.639      1569.1852      1747.2746      5372.0611     -445.93257      1803.7162      648.33297    
  47072000   240.18703     -416.36784     -335.92607     -416.34619      0              3780.9499      31.128         21.465467      33.302141      22251.727      5987.426       2539.9683      2815.4553     -1081.6474      964.01001     -614.65616    
  47074000   244.82908     -417.8618      -335.86535     -417.84995      0              3023.3737      31.128         21.465467      33.479839      22370.46       2786.1324      2904.6379      3379.3508     -1043.9527      131.68105     -1098.4629    
  47076000   243.97024     -416.86413     -335.15531     -416.84896      0              2823.8868      31.128         21.465467      33.699347      22517.13       2461.2612      2965.7561      3044.6432      1333.5381     -1138.5083     -484.85624    
  47078000   248.12913     -416.69376     -333.59208     -416.67938      0              1892.5748      31.128         21.465467      33.724041      22533.63       1985.8157      2298.7594      1393.1492      895.47689     -374.15373      776.62545    
  47080000   247.78114     -414.04408     -331.05894     -414.02321      0              1505.2937      31.128         21.465467      33.69951       22517.24       90.472538      2420.1644      2005.2442     -434.99517      1342.4893      475.96592    
  47082000   248.17642     -414.38786     -331.27034     -414.37004      0              2383.2226      31.128         21.465467      33.485724      22374.392      1576.2885      1861.0881      3712.2912     -11.038387      587.91957      196.40129    
  47084000   248.04851     -418.52519     -335.45051     -418.51088      0              2835.3428      31.128         21.465467      33.590121      22444.148      2681.1765      3403.676       2421.1759      1710.697       387.89028     -137.66091    
  47086000   244.4145      -413.85996     -332.00236     -413.84147      0              3163.0612      31.128         21.465467      33.471982      22365.21       4245.4289      2672.8796      2570.8751      418.33548     -634.76233     -1732.0338    
  47088000   237.21605     -414.75525     -335.3085      -414.74511      0              3836.772       31.128         21.465467      33.472531      22365.577      3427.0918      4625.5355      3457.6888     -1864.3602     -429.20152     -147.27886    
  47090000   233.27403     -415.00223     -336.87572     -414.98422      0              3333.9235      31.128         21.465467      33.452481      22352.18       2282.6232      4520.6391      3198.5081     -128.10706     -1013.6236      819.29099    
  47092000   253.57609     -415.69741     -330.77148     -415.66649      0              4574.191       31.128         21.465467      33.438409      22342.778      4692.0205      4238.0194      4792.5331      394.08327      427.92184      1672.9538    
  47094000   247.51025     -415.85695     -332.96254     -415.84301      0              3063.1018      31.128         21.465467      33.339472      22276.67       2571.6323      4746.6822      1870.991       693.99985      2066.9548     -1890.7016    
  47096000   243.98611     -417.02781     -335.31368     -417.01859      0              3563.2965      31.128         21.465467      33.30713       22255.06       2648.2784      3552.5974      4489.0136     -338.48467     -369.28626     -223.76291    
  47098000   248.99033     -414.89269     -331.50258     -414.88523      0              3321.8964      31.128         21.465467      33.48164       22371.664      4027.8158      3620.6169      2317.2564      1584.2505     -502.9007       1517.477     
  47100000   243.19087     -418.61936     -337.17157     -418.6118       0              104.02316      31.128         21.465467      33.563503      22426.363      1031.4767     -578.63366     -140.77355      258.4874      -591.90691     -999.92862    
  47102000   241.68839     -416.9283      -335.9837      -416.91049      0              5488.0907      31.128         21.465467      33.531494      22404.975      5322.859       5879.9372      5261.4758     -578.14591      105.23156     -166.98499    
  47104000   249.06914     -416.38759     -332.97109     -416.37732      0              4157.7637      31.128         21.465467      33.541509      22411.667      4487.2046      3768.9594      4217.1272     -827.63976      1281.2124      1044.1309    
  47106000   246.55818     -417.31259     -334.73704     -417.29144      0              3226.9803      31.128         21.465467      33.502947      22385.901      4456.6222      1270.2026      3954.1161     -1027.8293     -1700.3953      1488.9963    
  47108000   243.60305     -415.68883     -334.10299     -415.67885      0              2590.8967      31.128         21.465467      33.421387      22331.404      2249.2273      3110.2376      2413.2252     -1241.4117     -299.57161     -670.31635    
  47110000   245.52729     -417.30086     -335.07057     -417.28887      0              4495.9921      31.128         21.465467      33.482629      22372.325      4570.7057      3635.6903      5281.5802     -1031.1543     -56.575616      556.80115    
  47112000   244.97963     -415.85105     -333.80418     -415.84304      0              3245.3898      31.128         21.465467      33.682213      22505.682      985.93322      4118.587       4631.6491     -1029.3393      59.266459     -316.50151    
  47114000   241.73103     -415.87114     -334.91227     -415.86311      0              3493.0244      31.128         21.465467      33.532106      22405.384      3277.475       3001.6073      4199.991       441.5046       1652.2355     -24.791183    
  47116000   242.67943     -416.39666     -335.12016     -416.38938      0              1361.4739      31.128         21.465467      33.544389      22413.591      381.48153      1454.9993      2247.9407      505.47958     -327.00062     -284.236      
  47118000   245.6524      -417.30459     -335.0324      -417.2901       0              2974.1868      31.128         21.465467      33.395784      22314.297      1936.1701      2337.1085      4649.2818     -1529.1661      1144.6983      363.69153    
  47120000   246.75427     -414.38871     -331.74749     -414.37101      0              2280.0728      31.128         21.465467      33.407043      22321.82       2603.4058      1604.9542      2631.8585     -162.37869      1153.2472     -429.508      
  47122000   246.1625      -413.22982     -330.78679     -413.20368      0              2056.0118      31.128         21.465467      33.496633      22381.682      3522.5347      891.19414      1754.3066     -58.904162     -641.20849     -281.56142    
  47124000   247.76958     -414.95886     -331.9776      -414.9368       0              4263.3396      31.128         21.465467      33.428792      22336.352      6085.9937      3249.5794      3454.4455     -626.41748     -443.7791      -1374.01      
  47126000   245.24936     -415.24757     -333.11036     -415.23539      0              1867.4576      31.128         21.465467      33.380564      22304.127      3527.3571      160.92224      1914.0935     -1627.9193      1214.071      -583.2761     
  47128000   243.99941     -417.35009     -335.6315      -417.33315      0              4197.591       31.128         21.465467      33.403417      22319.397      4552.6591      4152.5848      3887.5292      554.83413     -949.96863     -421.40194    
  47130000   244.09113     -416.63443     -334.88512     -416.62065      0              2968.8482      31.128         21.465467      33.342065      22278.403      3693.6208      1249.0096      3963.914      -88.442254      374.43215     -756.43192    
  47132000   239.85891     -414.61542     -334.28355     -414.59042      0              4694.3328      31.128         21.465467      33.309053      22256.345      3597.8064      5708.3568      4776.8351     -255.72672     -91.159051      166.94274    
  47134000   248.27137     -415.03852     -331.8892      -414.99893      0              2001.443       31.128         21.465467      33.509081      22389.999      2017.6046      1222.1766      2764.5476      738.21866      1186.1529      1482.1621    
  47136000   248.41544     -417.12329     -333.92572     -417.08609      0              1534.5641      31.128         21.465467      33.59284       22445.965      2081.8552      880.51872      1641.3184      169.25155      58.12798      -277.94531    
  47138000   241.87315     -414.94759     -333.94111     -414.90164      0              1831.9923      31.128         21.465467      33.689362      22510.458      1903.1367      1537.4406      2055.3995      314.8129      -505.95056      742.58037    
  47140000   244.02514     -418.66626     -336.93906     -418.65081      0              2593.7297      31.128         21.465467      33.418883      22329.731      985.6401       2841.0131      3954.536      -644.36427      870.75559     -349.83834    
  47142000   249.99999     -415.92216     -332.1939      -415.88066      0              3353.8232      31.128         21.465467      33.60403       22453.442      3130.3051      4081.4842      2849.6804      1137.6599      245.38345     -33.351891    
  47144000   247.51354     -418.25297     -335.35746     -418.2442       0              2228.468       31.128         21.465467      33.414736      22326.96       1104.6194      2869.7563      2711.0284     -1656.0259      746.15779     -1045.8659    
  47146000   244.42781     -419.4244      -337.56234     -419.40704      0              2886.8652      31.128         21.465467      33.49979       22383.791      1330.2156      4106.0611      3224.3188      563.79047     -120.29766      460.62673    
  47148000   241.01452     -419.64704     -338.92813     -419.60564      0              3917.2313      31.128         21.465467      33.66373       22493.332      3334.4085      4328.5103      4088.7751      537.73175      550.75294     -23.60145     
  47150000   246.1568      -418.84073     -336.39961     -418.82013      0              3849.8491      31.128         21.465467      33.513111      22392.692      3491.5929      3328.8422      4729.1122      352.55681      19.279093      1816.6204    
  47152000   249.95942     -415.69362     -331.97895     -415.66152      0              2124.7155      31.128         21.465467      33.574061      22433.417      2294.5689      1891.5046      2188.073      -435.34674     -600.91476     -485.46953    
  47154000   240.16729     -417.72086     -337.28571     -417.68518      0              3589.2122      31.128         21.465467      33.553819      22419.892      3886.5728      3151.8052      3729.2585      1028.522       649.12932      728.24905    
  47156000   239.69498     -419.19148     -338.91451     -419.17191      0              4419.4615      31.128         21.465467      33.483439      22372.866      4318.2578      3630.2022      5309.9246      552.57279     -422.46897     -144.74796    
  47158000   245.24115     -419.16061     -337.02615     -419.14478      0              4436.7117      31.128         21.465467      33.406161      22321.23       4408.6779      4653.1156      4248.3417      211.43384     -581.24433     -471.80706    
  47160000   245.86747     -417.7147      -335.37048     -417.69923      0              2625.4115      31.128         21.465467      33.513645      22393.048      4199.9207      1486.2983      2190.0154      864.50826      1018.4539      847.706      
  47162000   248.38727     -417.55644     -334.36831     -417.54054      0              2380.7945      31.128         21.465467      33.521412      22398.238      2398.9373      3566.431       1177.0152     -1509.137       440.10517     -998.30198    
  47164000   245.36817     -414.66392     -332.48692     -414.60771      0              1608.3301      31.128         21.465467      33.613192      22459.564      1413.3753      1417.027       1994.5881      766.78955      131.65318      1010.764     
  47166000   247.67989     -415.38948     -332.43826     -415.34424      0              3851.5706      31.128         21.465467      33.573869      22433.289      3188.148       5317.8818      3048.6819      1182.1172     -1033.2711     -1260.705     
  47168000   248.64509     -415.84772     -332.57324     -415.79022      0              1276.6155      31.128         21.465467      33.662605      22492.581      2543.6711     -110.96874      1397.1442     -522.76953      228.96818     -396.97003    
  47170000   247.24196     -413.81265     -331.00809     -413.7586       0              3740.8972      31.128         21.465467      33.622794      22465.979      4040.9721      3722.9958      3458.7238     -326.17746     -1403.825      -1381.2644    
  47172000   241.49154     -417.61984     -336.74118     -417.56509      0              2855.3224      31.128         21.465467      33.498192      22382.723      2331.4266      4296.2325      1938.3079      354.10934     -859.75203      1160.1123    
  47174000   244.91547     -415.28617     -333.26078     -415.25914      0              4037.2665      31.128         21.465467      33.390512      22310.774      3095.4081      4107.8736      4908.5178     -419.63351      1224.5434      42.653298    
  47176000   245.75246     -417.88098     -335.57528     -417.85264      0              3106.4536      31.128         21.465467      33.155912      22154.02       4746.1754      2224.7321      2348.4533     -363.25394     -1590.6718     -87.691333    
  47178000   242.3202      -417.23398     -336.07778     -417.19968      0              4246.3022      31.128         21.465467      33.416847      22328.37       3219.6484      4914.7604      4604.4977      1369.835       614.05347      518.56338    
  47180000   240.21331     -416.9939      -336.54333     -416.96357      0              1663.8112      31.128         21.465467      33.241746      22211.372      3338.3947     -224.74434      1877.7833     -1240.5014     -380.52615      422.98856    
  47182000   241.68395     -417.58709     -336.64399     -417.55146      0              4039.2051      31.128         21.465467      33.244564      22213.255      5291.7201      3324.1849      3501.7104      682.69048     -1931.4981      1116.8704    
  47184000   252.6796      -419.14076     -334.51507     -419.11124      0              3118.4149      31.128         21.465467      33.490977      22377.902      3146.1362      5028.5917      1180.5167      1052.8871      473.0997       743.03672    
  47186000   244.83052     -416.40115     -334.40422     -416.34252      0              3036.1579      31.128         21.465467      33.438386      22342.762      2696.2566      2585.5836      3826.6335     -1722.0946      75.41048      -321.61159    
  47188000   247.91262     -417.23875     -334.20958     -417.20428      0              3460.7223      31.128         21.465467      33.486682      22375.032      2183.0051      3450.7553      4748.4065      719.43383     -170.74082      2258.9362    
  47190000   245.62117     -417.55813     -335.2964      -417.54141      0              2800.4527      31.128         21.465467      33.400321      22317.328      3221.4811      3495.6553      1684.2216      1055.5298     -848.04804     -746.14608    
  47192000   246.22565     -416.18027     -333.71609     -416.16757      0              3370.4384      31.128         21.465467      33.473738      22366.384      4932.4643      2322.5926      2856.2582      1043.3199     -1185.6031     -265.84003    
  47194000   244.25707     -415.72731     -333.92243     -415.70385      0              3131.9209      31.128         21.465467      33.510225      22390.764      3544.8255      3743.2667      2107.6705      1221.6661     -98.589791     -240.74803    
  47196000   240.91866     -418.56076     -337.87396     -418.54006      0              2002.1498      31.128         21.465467      33.417525      22328.823      2276.5681      542.19554      3187.6858      707.35018     -1438.3733      56.673962    
  47198000   250.46861     -416.33792     -332.45272     -416.30215      0              1446.3504      31.128         21.465467      33.778551      22570.053      1438.1142      1244.1573      1656.7797     -93.776222     -348.57616      69.434522    
  47200000   252.03548     -417.21605     -332.80609     -417.19484      0              3126.1195      31.128         21.465467      33.723743      22533.431      2152.1327      3632.1157      3594.1102      377.16893      1197.167       1876.875     
  47202000   247.50782     -419.10881     -336.21521     -419.09595      0              3110.5506      31.128         21.465467      33.462193      22358.669      2481.4311      3996.1837      2854.037       1413.9997      58.954238     -200.41159    
WARNING: Wall time limit reached (../timer.cpp:193)
Loop time of 85796.5 on 4 procs for 7524000 steps with 2592 atoms

Performance: 3.788 ns/day, 6.335 hours/ns, 87.696 timesteps/s
1439.3% CPU use with 4 MPI tasks x no OpenMP threads

MPI task timing breakdown:
Section |  min time  |  avg time  |  max time  |%varavg| %total
---------------------------------------------------------------
Pair    | 20975      | 21195      | 21383      | 117.7 | 24.70
Bond    | 0.68781    | 0.78304    | 0.83902    |   6.8 |  0.00
Neigh   | 630.9      | 635.04     | 642.21     |  18.3 |  0.74
Comm    | 2503.3     | 2687.6     | 2908.4     | 328.7 |  3.13
Output  | 6330.9     | 6331       | 6331.2     |   0.2 |  7.38
Modify  | 54922      | 54926      | 54933      |   2.1 | 64.02
Other   |            | 20.74      |            |       |  0.02

Nlocal:            648 ave         658 max         633 min
Histogram: 1 0 0 0 1 0 0 0 0 2
Nghost:        4172.25 ave        4180 max        4163 min
Histogram: 1 0 1 0 0 0 0 0 1 1
Neighs:              0 ave           0 max           0 min
Histogram: 4 0 0 0 0 0 0 0 0 0
FullNghs:       160990 ave      165940 max      154466 min
Histogram: 1 0 0 1 0 0 0 0 0 2

Total # of neighbors = 643962
Ave neighs/atom = 248.44213
Ave special neighs/atom = 0
Neighbor list builds = 150480
Dangerous builds not checked
unfix 3
unfix 1
unfix 2


# Finalize simulation
write_restart	restart.lmp.${pid}
write_restart	restart.lmp.0
System init for write_restart ...
Generated 0 of 1 mixed pair_coeff terms from geometric mixing rule
write_data	data.final.${pid} nocoeff
write_data	data.final.0 nocoeff
System init for write_data ...
Generated 0 of 1 mixed pair_coeff terms from geometric mixing rule
Total wall time: 23:50:19
