
CommandNotFoundError: Your shell has not been properly configured to use 'conda activate'.
To initialize your shell, run

    $ conda init <SHELL_NAME>

Currently supported shells are:
  - bash
  - fish
  - tcsh
  - xonsh
  - zsh
  - powershell

See 'conda init --help' for more information and options.

IMPORTANT: You may need to close and restart your shell after running 'conda init'.


ls: cannot access DeePMD/*/: No such file or directory
bash: line 0: cd: bash: No such file or directory
/home/sbore/projects/DeepMDPhaseDiagram/3-AnalyzePerformance/DensityPetrenko
ERROR on proc 0: Cannot open input script start.lmp: No such file or directory (src/lammps.cpp:520)
Last command: (unknown)
application called MPI_Abort(MPI_COMM_WORLD, 1) - process 0
[unset]: write_line error; fd=-1 buf=:cmd=abort exitcode=1
:
system msg for write_line failure : Bad file descriptor

CommandNotFoundError: Your shell has not been properly configured to use 'conda activate'.
To initialize your shell, run

    $ conda init <SHELL_NAME>

Currently supported shells are:
  - bash
  - fish
  - tcsh
  - xonsh
  - zsh
  - powershell

See 'conda init --help' for more information and options.

IMPORTANT: You may need to close and restart your shell after running 'conda init'.


/home/sbore/projects/DeepMDPhaseDiagram/3-AnalyzePerformance/DensityPetrenko/DeePMD/Ice_Ic_0gpa_78.0K
LAMMPS (29 Sep 2021 - Update 3)
  using 4 OpenMP thread(s) per MPI task
Loading plugin: deepmd pair style v2.0 by Han Wang
Loading plugin: compute deeptensor/atom v2.0 by Han Wang
Loading plugin: fix dplr v2.0 by Han Wang

include		in.partitions
variable        pid world 0
include		in.temp
variable	temperature equal 78.0
variable	tempDamp equal 0.100
include		in.pressure
variable        pressure equal 0
variable        pressureDamp equal 1.0000 # This is 1 ps
include		in.seed
variable        seed world 745823

units		metal
atom_style	full
include		in.box

read_data       water.data
Reading data file ...
  orthogonal box = (0.0000000 0.0000000 0.0000000) to (19.145464 19.145464 19.145464)
  1 by 1 by 1 MPI processor grid
  reading atoms ...
  648 atoms
Finding 1-2 1-3 1-4 neighbors ...
  special bond factors lj:    0        0        0       
  special bond factors coul:  0        0        0       
     0 = max # of 1-2 neighbors
     0 = max # of 1-3 neighbors
     0 = max # of 1-4 neighbors
     1 = max # of special neighbors
  special bonds CPU = 0.001 seconds
  read_data CPU = 0.005 seconds
include 	in.setup
variable	out_freq equal 500
variable	out_freq2 equal 500

timestep	0.0005

neigh_modify    delay 7 every 1

include		in.deepmd
# This is deepMD model

# create groups ###
#group ox type 2
#group hy type 1

#mass            2 15.9994
#mass            1 1.007840


pair_style      deepmd ../../graph.pb
Summary of lammps deepmd module ...
  >>> Info of deepmd-kit:
  installed to:       /home/sbore/software/miniconda3/envs/deepmd2.1.1
  source:             v2.1.1
  source branch:       HEAD
  source commit:      c4f0cec0
  source commit at:   2022-04-16 11:11:16 +0800
  surpport model ver.:1.1 
  build float prec:   double
  build with tf inc:  /home/sbore/software/miniconda3/envs/deepmd2.1.1/include;/home/sbore/software/miniconda3/envs/deepmd2.1.1/include
  build with tf lib:  /home/sbore/software/miniconda3/envs/deepmd2.1.1/lib/libtensorflow_cc.so;/home/sbore/software/miniconda3/envs/deepmd2.1.1/lib/libtensorflow_framework.so
  set tf intra_op_parallelism_threads: 2
  set tf inter_op_parallelism_threads: 2
  >>> Info of lammps module:
  use deepmd-kit at:  /home/sbore/software/miniconda3/envs/deepmd2.1.12022-05-21 12:35:51.988890: I tensorflow/core/platform/cpu_feature_guard.cc:151] This TensorFlow binary is optimized with oneAPI Deep Neural Network Library (oneDNN) to use the following CPU instructions in performance-critical operations:  SSE4.1 SSE4.2 AVX AVX2 AVX512F FMA
To enable them in other operations, rebuild TensorFlow with the appropriate compiler flags.
2022-05-21 12:35:52.807827: I tensorflow/core/common_runtime/gpu/gpu_device.cc:1525] Created device /job:localhost/replica:0/task:0/device:GPU:0 with 5467 MB memory:  -> device: 0, name: NVIDIA GeForce GTX 1060 6GB, pci bus id: 0000:17:00.0, compute capability: 6.1
  >>> Info of model(s):
  using   1 model(s): ../../graph.pb 
  rcut in model:      6
  ntypes in model:    2
pair_coeff      * *

bond_style      none
angle_style     none
dihedral_style  none
improper_style  none
neigh_modify exclude none


neighbor        2.0 bin
neigh_modify    every 10 delay 0 check no

thermo          ${out_freq}
thermo          500
thermo_style 	custom step temp pe etotal epair emol press lx ly lz vol pxx pyy pzz pxy pxz pyz cella cellb cellc cellalpha cellbeta cellgamma


thermo_modify   flush yes
restart 	${out_freq} restart.lmp.${pid} restart2.lmp.${pid}
restart 	500 restart.lmp.${pid} restart2.lmp.${pid}
restart 	500 restart.lmp.0 restart2.lmp.${pid}
restart 	500 restart.lmp.0 restart2.lmp.0


include         in.dump
dump            myDump all atom ${out_freq2} configurations.lammpstrj
dump            myDump all atom 500 configurations.lammpstrj
dump_modify     myDump append yes


include in.dump_rerun


###############################
# Dump data into output files #
###############################

# Dump forces every step
dump force all custom 500 force_ev.dat id fx fy fz
dump_modify force sort id append yes


# Dump energy every step
fix             energy all print 500 "$(step) $(pe)" append energy_ev.dat screen no title "#step pe/(ev)"

# Dump box every step
fix             box all print 500 "$(step) $(lx) 0.0 0.0 $(xy) $(ly) 0.0 $(xz) $(yz) $(lz)" append box.dat screen no title "#step lxx lxy lxz lyx lyz lzx lzy lzz"

#include in.dump_avg

timer           timeout 23:45:00 every 250
New timer settings: style=normal  mode=nosync  timeout=23:45:00

fix             2 all nph aniso ${pressure} ${pressure} ${pressureDamp}
fix             2 all nph aniso 0 ${pressure} ${pressureDamp}
fix             2 all nph aniso 0 0 ${pressureDamp}
fix             2 all nph aniso 0 0 1
fix             3 all temp/csvr ${temperature} ${temperature} ${tempDamp} ${seed}
fix             3 all temp/csvr 78 ${temperature} ${tempDamp} ${seed}
fix             3 all temp/csvr 78 78 ${tempDamp} ${seed}
fix             3 all temp/csvr 78 78 0.1 ${seed}
fix             3 all temp/csvr 78 78 0.1 745823
velocity 	all create ${temperature} ${seed} dist gaussian
velocity 	all create 78 ${seed} dist gaussian
velocity 	all create 78 745823 dist gaussian

run             399999 upto

CITE-CITE-CITE-CITE-CITE-CITE-CITE-CITE-CITE-CITE-CITE-CITE-CITE

Your simulation uses code contributions which should be cited:
- USER-DEEPMD package:
The log file lists these citations in BibTeX format.

CITE-CITE-CITE-CITE-CITE-CITE-CITE-CITE-CITE-CITE-CITE-CITE-CITE

Neighbor list info ...
  update every 10 steps, delay 0 steps, check no
  max neighbors/atom: 2000, page size: 100000
  master list distance cutoff = 8
  ghost atom cutoff = 8
  binsize = 4, bins = 5 5 5
  1 neighbor lists, perpetual/occasional/extra = 1 0 0
  (1) pair deepmd, perpetual
      attributes: full, newton on
      pair build: full/bin
      stencil: full/bin/3d
      bin: standard
Setting up Verlet run ...
  Unit style    : metal
  Current step  : 0
  Time step     : 0.0005
  Walltime left : 23:44:59.99
Per MPI rank memory allocation (min/avg/max) = 11.06 | 11.06 | 11.06 Mbytes
Step Temp PotEng TotEng E_pair E_mol Press Lx Ly Lz Volume Pxx Pyy Pzz Pxy Pxz Pyz Cella Cellb Cellc CellAlpha CellBeta CellGamma 
       0           78   -128.28984   -121.76659   -128.28984            0    25660.427    19.145464    19.145464    19.145464    7017.7467     25725.05    25778.513    25477.719   -1919.8764   -2116.0018   -1906.6812    19.145464    19.145464    19.145464           90           90           90 
     500    84.487637    -127.0405   -119.97469    -127.0405            0   -4241.6012    18.906355    18.880066    18.912303    6750.8076   -4434.6768   -4280.6032   -4009.5236   -921.99323   -1406.4007    180.24704    18.906355    18.880066    18.912303           90           90           90 
    1000    68.691339   -125.49288   -119.74813   -125.49288            0   -13849.687    18.935163    18.943317     18.98052    6808.2137   -14207.529   -13255.041    -14086.49   -1155.0888   -1627.8712   -766.69178    18.935163    18.943317     18.98052           90           90           90 
    1500     78.41102   -126.51963   -119.96201   -126.51963            0    2991.5217    18.979661    19.055453    19.019034    6878.5386     3263.087     2609.381    3102.0972   -1695.4534   -1759.5436   -705.62695    18.979661    19.055453    19.019034           90           90           90 
    2000    81.304074   -126.28069   -119.48112   -126.28069            0    2721.3323    18.989407    18.941765    18.987997    6829.8478    2710.2435    2229.1737    3224.5798   -1630.8717    -754.7735   -217.20371    18.989407    18.941765    18.987997           90           90           90 
    2500    79.447199   -126.00065   -119.35638   -126.00065            0   -618.57429    18.944288     18.92862    18.994738    6811.3084    21.672759      -677.42   -1199.9756    1734.0583    547.50241    414.49712    18.944288     18.92862    18.994738           90           90           90 
    3000    76.875937    -125.9531   -119.52386    -125.9531            0   -1488.5337    18.943168     19.08217     19.00155    6868.6188   -923.17827   -2203.5929     -1338.83     145.2175   -279.07967    1736.6829    18.943168     19.08217     19.00155           90           90           90 
    3500    75.119369   -126.08361   -119.80128   -126.08361            0    427.49142    19.039845    18.951309    19.008761     6858.931   -58.491404    429.08669    911.87897    538.63147    713.87783    2420.9572    19.039845    18.951309    19.008761           90           90           90 
    4000    79.881396   -126.69876   -120.01818   -126.69876            0    1528.3609    18.955672    18.886389    18.991513     6799.041    1629.5345    1585.8703    1369.6779   -1176.4942    433.82408    1629.7019    18.955672    18.886389    18.991513           90           90           90 
    4500    74.814927   -126.16221   -119.90534   -126.16221            0   -271.88681    18.874731    19.104524    19.018755    6858.0253    237.22679   -697.20581    -355.6814   -923.24199    1508.1184    1.1890108    18.874731    19.104524    19.018755           90           90           90 
    5000    81.057986   -126.37778   -119.59879   -126.37778            0    -1302.635    19.068534    19.037261    18.932869    6872.8712   -1165.6161   -1726.9029    -1015.386   -761.31979    138.26321    1325.0826    19.068534    19.037261    18.932869           90           90           90 
    5500    75.558489   -126.30579   -119.98674   -126.30579            0    2135.8609    19.062889    18.804527    19.089641    6843.0371    1768.7175    2313.0219    2325.8432   -1472.2331   -220.92998    544.62293    19.062889    18.804527    19.089641           90           90           90 
    6000    79.283587   -126.26767   -119.63708   -126.26767            0   -280.68002    18.774573    19.116835    19.036084    6832.2486   -32.760585    217.10086   -1026.3803     768.9129   -1722.6247   -946.17674    18.774573    19.116835    19.036084           90           90           90 
    6500    74.612581   -126.20578   -119.96583   -126.20578            0   -2262.3726     19.01026    19.062968    18.856653    6833.4999   -2228.3972   -3358.3889   -1200.3317    575.69421   -1158.8973   -115.41194     19.01026    19.062968    18.856653           90           90           90 
    7000    80.423344   -126.02383   -119.29792   -126.02383            0    711.49335    19.141671    18.836519    19.089171    6882.8383   -120.12279    1257.2777    997.32517    1563.7835    329.41476   -1345.2312    19.141671    18.836519    19.089171           90           90           90 
    7500    80.433525   -126.30307   -119.57631   -126.30307            0    1752.0019    18.845515    19.006708     19.06484    6828.8578    2376.1739    1504.6215    1375.2104    506.55607    1376.0197   -777.02852    18.845515    19.006708     19.06484           90           90           90 
    8000    78.820289   -126.27418   -119.68234   -126.27418            0    1049.6235    18.950245     19.07837     18.88274    6826.8619    739.44256    963.40754    1446.0203   -378.97903    159.37159   -243.03704    18.950245     19.07837     18.88274           90           90           90 
    8500      79.6378   -126.44136   -119.78114   -126.44136            0   -774.48317     19.06473    18.880884    19.027362    6849.0695   -1141.9918   -343.87067     -837.587   -21.501157     1043.397    982.24719     19.06473    18.880884    19.027362           90           90           90 
    9000    78.836687   -126.05795   -119.46473   -126.05795            0    137.15686    18.946961    18.997818    19.086422     6870.175    135.29726     177.9278    98.245517   -831.21893   -363.65684    1662.6018    18.946961    18.997818    19.086422           90           90           90 
    9500    81.764435   -126.14319   -119.30512   -126.14319            0    -981.0795    18.954211    19.068711    18.913358    6835.9001   -1044.1555   -601.36709   -1297.7159    1854.6363    1216.6892    1617.0636    18.954211    19.068711    18.913358           90           90           90 
   10000     77.56892   -125.63852   -119.15133   -125.63852            0    159.37788    19.000638    18.908935    18.998735    6825.9004    402.20634   -237.31914    313.24643   -399.42933     2670.551    951.14174    19.000638    18.908935    18.998735           90           90           90 
   10500    84.365123   -125.87272   -118.81715   -125.87272            0    -480.3339    19.001577    18.998217    19.102071     6895.773   -161.56065   -302.54171   -976.89933   -489.32619    237.98432    270.01533    19.001577    18.998217    19.102071           90           90           90 
   11000    76.552299   -125.73907    -119.3369   -125.73907            0    177.80056    18.973607    19.060327    18.955571    6855.1526    721.92174    84.864954     -273.385   -560.92439   -2205.0003   -928.57695    18.973607    19.060327    18.955571           90           90           90 
   11500    77.112716   -126.34278   -119.89375   -126.34278            0   -96.354749    18.955416    18.936582    18.962051     6806.443   -743.82275    475.13215   -20.373651    2019.5159   -618.18184    2652.4633    18.955416    18.936582    18.962051           90           90           90 
   12000    77.292037   -125.82075   -119.35671   -125.82075            0    533.65388    19.002616    18.979487    19.126841    6898.2847    412.77561    1262.8191     -74.6331    534.41379   -1432.0935    1426.9077    19.002616    18.979487    19.126841           90           90           90 
   12500    80.597533   -125.90215   -119.16167   -125.90215            0   -363.88156    18.989941    19.058059    18.960728     6862.104    -537.6447   -735.98792    181.98793    695.91984    186.10666      1987.54    18.989941    19.058059    18.960728           90           90           90 
   13000    81.791782   -125.83103   -118.99068   -125.83103            0   -621.20618    18.937168    18.985445    18.981809    6824.5406    13.970605   -764.08627   -1113.5029    448.06936   -1976.2948   -1575.2062    18.937168    18.985445    18.981809           90           90           90 
   13500    80.259978   -126.41761   -119.70537   -126.41761            0   -1994.6456    19.010413    18.891389    19.082589    6853.1894    -1772.604   -1407.8577    -2803.475    549.25403   -2223.4016   -562.07627    19.010413    18.891389    19.082589           90           90           90 
   14000    75.264993   -125.95455   -119.66003   -125.95455            0    -273.6729    19.041697     19.09248    18.987023    6902.7931    -120.0034   -769.34273    68.327434   -1578.2792   -477.62399   -474.20593    19.041697     19.09248    18.987023           90           90           90 
   14500     74.71617   -126.21149   -119.96288   -126.21149            0   -189.17941    18.867449    19.093472    18.969036    6833.5025   -163.29638   -198.91241   -205.32943    23.342169    108.29277   -1412.0623    18.867449    19.093472    18.969036           90           90           90 
   15000    74.531025   -125.88394   -119.65081   -125.88394            0    133.30805     18.98813    18.804374    19.056488    6804.3079     866.9115    489.68285   -956.67021     1779.769   -669.79169   -611.91608     18.98813    18.804374    19.056488           90           90           90 
   15500    75.626916   -125.90009   -119.57531   -125.90009            0    1262.6449    19.129228    18.987979    19.035693    6914.2471    629.71643    1101.8003    2056.4181    850.43102    1137.2174    2756.5279    19.129228    18.987979    19.035693           90           90           90 
   16000    77.093569   -126.03757   -119.59013   -126.03757            0    -1587.208    18.881267    19.181401    18.991003    6877.9555   -875.37926   -2419.5651   -1466.6795   -572.90293    716.43856   -380.44272    18.881267    19.181401    18.991003           90           90           90 
   16500    83.106143   -126.55172   -119.60145   -126.55172            0   -678.68731    18.960591    18.927336    19.009431    6821.9809   -1154.0424   -613.53363   -268.48588    681.69042   -1073.6096   -819.40078    18.960591    18.927336    19.009431           90           90           90 
   17000    79.235214   -126.15826   -119.53171   -126.15826            0    534.94231    19.051565    18.871421     19.01617    6836.8855     721.4699    1057.6423   -174.28531   -1074.5671   -717.20023    320.98524    19.051565    18.871421     19.01617           90           90           90 
   17500    75.865216   -125.67749   -119.33278   -125.67749            0    13.832057    18.936435    19.119383    19.045514    6895.4849     211.4106   -333.09329    163.17886   -730.65149    641.09523   -1424.8843    18.936435    19.119383    19.045514           90           90           90 
   18000    76.920085   -126.44477   -120.01184   -126.44477            0   -342.93078    18.981177    19.029811    18.995799    6861.4391   -671.94687    -214.8747   -141.97076   -163.88878   -557.38359   -1159.0099    18.981177    19.029811    18.995799           90           90           90 
   18500    77.356648   -126.35148   -119.88204   -126.35148            0    527.52532    19.045083    18.870792    18.986793    6823.7735    46.308155    252.18725    1284.0806   -561.94124   -1766.4992   -1228.7985    19.045083    18.870792    18.986793           90           90           90 
   19000    76.763711   -126.14421   -119.72435   -126.14421            0   -19.063935    18.900258    19.021035    19.072523    6856.6189    132.91379   -57.408215   -132.69738    228.02223   -839.92511    188.98353    18.900258    19.021035    19.072523           90           90           90 

CommandNotFoundError: Your shell has not been properly configured to use 'conda activate'.
To initialize your shell, run

    $ conda init <SHELL_NAME>

Currently supported shells are:
  - bash
  - fish
  - tcsh
  - xonsh
  - zsh
  - powershell

See 'conda init --help' for more information and options.

IMPORTANT: You may need to close and restart your shell after running 'conda init'.


/home/sbore/projects/DeepMDPhaseDiagram/3-AnalyzePerformance/DensityPetrenko/DeePMD/Ice_Ic_0gpa_78.0K
LAMMPS (29 Sep 2021 - Update 3)
  using 4 OpenMP thread(s) per MPI task
Loading plugin: deepmd pair style v2.0 by Han Wang
Loading plugin: compute deeptensor/atom v2.0 by Han Wang
Loading plugin: fix dplr v2.0 by Han Wang

include		in.partitions
variable        pid world 0
include		in.temp
variable	temperature equal 78.0
variable	tempDamp equal 0.100
include		in.pressure
variable        pressure equal 0
variable        pressureDamp equal 1.0000 # This is 1 ps
include		in.seed
variable        seed world 745823

units		metal
atom_style	full
include		in.box

read_data       water.data
Reading data file ...
  orthogonal box = (0.0000000 0.0000000 0.0000000) to (19.145464 19.145464 19.145464)
  1 by 1 by 1 MPI processor grid
  reading atoms ...
  648 atoms
Finding 1-2 1-3 1-4 neighbors ...
  special bond factors lj:    0        0        0       
  special bond factors coul:  0        0        0       
     0 = max # of 1-2 neighbors
     0 = max # of 1-3 neighbors
     0 = max # of 1-4 neighbors
     1 = max # of special neighbors
  special bonds CPU = 0.000 seconds
  read_data CPU = 0.004 seconds
include 	in.setup
variable	out_freq equal 500
variable	out_freq2 equal 500

timestep	0.0005

neigh_modify    delay 7 every 1

include		in.deepmd
# This is deepMD model

# create groups ###
#group ox type 2
#group hy type 1

#mass            2 15.9994
#mass            1 1.007840


pair_style      deepmd ../../graph.pb
Summary of lammps deepmd module ...
  >>> Info of deepmd-kit:
  installed to:       /home/sbore/software/miniconda3/envs/deepmd2.1.1
  source:             v2.1.1
  source branch:       HEAD
  source commit:      c4f0cec0
  source commit at:   2022-04-16 11:11:16 +0800
  surpport model ver.:1.1 
  build float prec:   double
  build with tf inc:  /home/sbore/software/miniconda3/envs/deepmd2.1.1/include;/home/sbore/software/miniconda3/envs/deepmd2.1.1/include
  build with tf lib:  /home/sbore/software/miniconda3/envs/deepmd2.1.1/lib/libtensorflow_cc.so;/home/sbore/software/miniconda3/envs/deepmd2.1.1/lib/libtensorflow_framework.so
  set tf intra_op_parallelism_threads: 2
  set tf inter_op_parallelism_threads: 2
  >>> Info of lammps module:
  use deepmd-kit at:  /home/sbore/software/miniconda3/envs/deepmd2.1.12022-05-21 12:45:00.865662: I tensorflow/core/platform/cpu_feature_guard.cc:151] This TensorFlow binary is optimized with oneAPI Deep Neural Network Library (oneDNN) to use the following CPU instructions in performance-critical operations:  SSE4.1 SSE4.2 AVX AVX2 AVX512F FMA
To enable them in other operations, rebuild TensorFlow with the appropriate compiler flags.
2022-05-21 12:45:01.876238: I tensorflow/core/common_runtime/gpu/gpu_device.cc:1525] Created device /job:localhost/replica:0/task:0/device:GPU:0 with 5467 MB memory:  -> device: 0, name: NVIDIA GeForce GTX 1060 6GB, pci bus id: 0000:17:00.0, compute capability: 6.1
  >>> Info of model(s):
  using   1 model(s): ../../graph.pb 
  rcut in model:      6
  ntypes in model:    2
pair_coeff      * *

bond_style      none
angle_style     none
dihedral_style  none
improper_style  none
neigh_modify exclude none


neighbor        2.0 bin
neigh_modify    every 10 delay 0 check no

thermo          ${out_freq}
thermo          500
thermo_style 	custom step temp pe etotal epair emol press lx ly lz vol pxx pyy pzz pxy pxz pyz cella cellb cellc cellalpha cellbeta cellgamma


thermo_modify   flush yes
restart 	${out_freq} restart.lmp.${pid} restart2.lmp.${pid}
restart 	500 restart.lmp.${pid} restart2.lmp.${pid}
restart 	500 restart.lmp.0 restart2.lmp.${pid}
restart 	500 restart.lmp.0 restart2.lmp.0


include         in.dump
dump            myDump all atom ${out_freq2} configurations.lammpstrj
dump            myDump all atom 500 configurations.lammpstrj
dump_modify     myDump append yes


include in.dump_rerun


###############################
# Dump data into output files #
###############################

# Dump forces every step
dump force all custom 500 force_ev.dat id fx fy fz
dump_modify force sort id append yes


# Dump energy every step
fix             energy all print 500 "$(step) $(pe)" append energy_ev.dat screen no title "#step pe/(ev)"

# Dump box every step
fix             box all print 500 "$(step) $(lx) 0.0 0.0 $(xy) $(ly) 0.0 $(xz) $(yz) $(lz)" append box.dat screen no title "#step lxx lxy lxz lyx lyz lzx lzy lzz"

#include in.dump_avg

timer           timeout 23:45:00 every 250
New timer settings: style=normal  mode=nosync  timeout=23:45:00

fix             2 all nph aniso ${pressure} ${pressure} ${pressureDamp}
fix             2 all nph aniso 0 ${pressure} ${pressureDamp}
fix             2 all nph aniso 0 0 ${pressureDamp}
fix             2 all nph aniso 0 0 1
fix             3 all temp/csvr ${temperature} ${temperature} ${tempDamp} ${seed}
fix             3 all temp/csvr 78 ${temperature} ${tempDamp} ${seed}
fix             3 all temp/csvr 78 78 ${tempDamp} ${seed}
fix             3 all temp/csvr 78 78 0.1 ${seed}
fix             3 all temp/csvr 78 78 0.1 745823
velocity 	all create ${temperature} ${seed} dist gaussian
velocity 	all create 78 ${seed} dist gaussian
velocity 	all create 78 745823 dist gaussian

run             199999 upto

CITE-CITE-CITE-CITE-CITE-CITE-CITE-CITE-CITE-CITE-CITE-CITE-CITE

Your simulation uses code contributions which should be cited:
- USER-DEEPMD package:
The log file lists these citations in BibTeX format.

CITE-CITE-CITE-CITE-CITE-CITE-CITE-CITE-CITE-CITE-CITE-CITE-CITE

Neighbor list info ...
  update every 10 steps, delay 0 steps, check no
  max neighbors/atom: 2000, page size: 100000
  master list distance cutoff = 8
  ghost atom cutoff = 8
  binsize = 4, bins = 5 5 5
  1 neighbor lists, perpetual/occasional/extra = 1 0 0
  (1) pair deepmd, perpetual
      attributes: full, newton on
      pair build: full/bin
      stencil: full/bin/3d
      bin: standard
Setting up Verlet run ...
  Unit style    : metal
  Current step  : 0
  Time step     : 0.0005
  Walltime left : 23:44:59.99
Per MPI rank memory allocation (min/avg/max) = 11.06 | 11.06 | 11.06 Mbytes
Step Temp PotEng TotEng E_pair E_mol Press Lx Ly Lz Volume Pxx Pyy Pzz Pxy Pxz Pyz Cella Cellb Cellc CellAlpha CellBeta CellGamma 
       0           78   -128.28984   -121.76659   -128.28984            0    25660.427    19.145464    19.145464    19.145464    7017.7467     25725.05    25778.513    25477.719   -1919.8764   -2116.0018   -1906.6812    19.145464    19.145464    19.145464           90           90           90 
   19500    79.519778   -126.17104   -119.52069   -126.17104            0   -456.03899    18.989556    19.148366    18.982878    6902.5346   -171.21028   -376.78467   -820.12203    1383.9692    -559.3423   -531.08725    18.989556    19.148366    18.982878           90           90           90 
     500    84.487637    -127.0405   -119.97469    -127.0405            0   -4241.6012    18.906355    18.880066    18.912303    6750.8076   -4434.6768   -4280.6032   -4009.5236   -921.99323   -1406.4007    180.24704    18.906355    18.880066    18.912303           90           90           90 
   20000    74.415508   -126.17461   -119.95114   -126.17461            0   -364.32794    19.084505    18.885817    18.989937    6844.4761     -619.841   -619.93881    146.79598    99.060922   -1699.1928    1260.6397    19.084505    18.885817    18.989937           90           90           90 
    1000    68.691339   -125.49288   -119.74813   -125.49288            0   -13849.687    18.935163    18.943317     18.98052    6808.2137   -14207.529   -13255.041    -14086.49   -1155.0888   -1627.8712   -766.69178    18.935163    18.943317     18.98052           90           90           90 
   20500    72.881564   -125.97001   -119.87483   -125.97001            0    1299.6195    18.885694    18.904571    19.097553    6818.3214    1856.5494    1803.6471    238.66211    609.20253   -921.61113   -1815.8258    18.885694    18.904571    19.097553           90           90           90 
    1500     78.41102   -126.51963   -119.96201   -126.51963            0    2991.5217    18.979661    19.055453    19.019034    6878.5386     3263.087     2609.381    3102.0972   -1695.4534   -1759.5436   -705.62695    18.979661    19.055453    19.019034           90           90           90 
   21000     77.45065   -126.51656   -120.03926   -126.51656            0    989.39171    18.938338    19.142935     18.93864     6865.927    1453.6653    243.55767    1270.9522    592.87827   -855.33746   -194.40244    18.938338    19.142935     18.93864           90           90           90 
    2000    81.304074   -126.28069   -119.48112   -126.28069            0    2721.3323    18.989407    18.941765    18.987997    6829.8478    2710.2435    2229.1737    3224.5798   -1630.8717    -754.7735   -217.20371    18.989407    18.941765    18.987997           90           90           90 
   21500    74.381845   -126.37167   -120.15102   -126.37167            0   -388.88369      19.0855    18.967623     18.98424    6872.4195   -647.46288    135.33005   -654.51824   -1114.5679   -457.17524    1963.9143      19.0855    18.967623     18.98424           90           90           90 
    2500    79.447199   -126.00065   -119.35638   -126.00065            0   -618.57429    18.944288     18.92862    18.994738    6811.3084    21.672759      -677.42   -1199.9756    1734.0583    547.50241    414.49712    18.944288     18.92862    18.994738           90           90           90 
   22000      80.3798   -126.54885   -119.82658   -126.54885            0   -273.04919    18.974288     18.89543    19.138068    6861.5204   -356.13755    174.52342   -637.53345    1033.0403   -492.35696   -487.85019    18.974288     18.89543    19.138068           90           90           90 
    3000    76.875937    -125.9531   -119.52386    -125.9531            0   -1488.5337    18.943168     19.08217     19.00155    6868.6188   -923.17827   -2203.5929     -1338.83     145.2175   -279.07967    1736.6829    18.943168     19.08217     19.00155           90           90           90 
   22500    76.919125   -126.23363   -119.80078   -126.23363            0   -1319.4648    18.898761    19.077431    18.963767    6837.1928   -983.36546   -1792.5315   -1182.4973    150.74059   -813.36382    1682.2129    18.898761    19.077431    18.963767           90           90           90 
    3500    75.119369   -126.08361   -119.80128   -126.08361            0    427.49142    19.039845    18.951309    19.008761     6858.931   -58.491404    429.08669    911.87897    538.63147    713.87783    2420.9572    19.039845    18.951309    19.008761           90           90           90 
   23000    77.589743   -126.52366   -120.03472   -126.52366            0   -1827.1843    19.007386    19.001522    18.952795    6845.1669   -1740.3303   -2353.3148   -1387.9077     821.5921    1002.6963   -1249.0786    19.007386    19.001522    18.952795           90           90           90 
    4000    79.881396   -126.69876   -120.01818   -126.69876            0    1528.3609    18.955672    18.886389    18.991513     6799.041    1629.5345    1585.8703    1369.6779   -1176.4942    433.82408    1629.7019    18.955672    18.886389    18.991513           90           90           90 
   23500     78.22119   -126.11191   -119.57017   -126.11191            0    351.41614    19.036849    18.940292     19.11928    6893.7142    183.81866    944.45929   -74.029533   -1091.8652    705.57778    102.45832    19.036849    18.940292     19.11928           90           90           90 
    4500    74.814927   -126.16221   -119.90534   -126.16221            0   -271.88681    18.874731    19.104524    19.018755    6858.0253    237.22679   -697.20581    -355.6814   -923.24199    1508.1184    1.1890108    18.874731    19.104524    19.018755           90           90           90 
   24000    81.681281   -126.13306   -119.30195   -126.13306            0    1886.0717    18.954855    19.066388    18.996509      6865.35     1740.463    2377.9043    1539.8478    1293.1304   -782.71636   -493.34684    18.954855    19.066388    18.996509           90           90           90 
    5000    81.057986   -126.37778   -119.59879   -126.37778            0    -1302.635    19.068534    19.037261    18.932869    6872.8712   -1165.6161   -1726.9029    -1015.386   -761.31979    138.26321    1325.0826    19.068534    19.037261    18.932869           90           90           90 
   24500    80.047015     -126.202   -119.50757     -126.202            0    2550.6739    18.956598    18.977942    18.928489    6809.6603    2519.7266    2420.6142     2711.681    142.45443     22.61822    169.44547    18.956598    18.977942    18.928489           90           90           90 
    5500    75.558489   -126.30579   -119.98674   -126.30579            0    2135.8609    19.062889    18.804527    19.089641    6843.0371    1768.7175    2313.0219    2325.8432   -1472.2331   -220.92998    544.62293    19.062889    18.804527    19.089641           90           90           90 
   25000     80.68007    -126.0063   -119.25892    -126.0063            0   -474.33344    19.047106    18.931979    19.123653    6895.9783   -1447.5967    147.41839   -122.82203      1163.32   -2312.4305    82.677555    19.047106    18.931979    19.123653           90           90           90 
    6000    79.283587   -126.26767   -119.63708   -126.26767            0   -280.68002    18.774573    19.116835    19.036084    6832.2486   -32.760585    217.10086   -1026.3803     768.9129   -1722.6247   -946.17674    18.774573    19.116835    19.036084           90           90           90 
   25500      78.2279   -125.62097   -119.07867   -125.62097            0   -1655.7207    18.981356    19.100303     19.01405     6893.537   -1992.0631   -1839.9482   -1135.1508   -719.11332    -575.6674    801.16904    18.981356    19.100303     19.01405           90           90           90 
    6500    74.612581   -126.20578   -119.96583   -126.20578            0   -2262.3726     19.01026    19.062968    18.856653    6833.4999   -2228.3972   -3358.3889   -1200.3317    575.69421   -1158.8973   -115.41194     19.01026    19.062968    18.856653           90           90           90 
   26000    79.887434   -125.96788   -119.28678   -125.96788            0    1300.8685    18.962198    19.039971    18.957265    6844.3254    1058.0318    1224.2709     1620.303   -628.35598   -323.56721    978.90818    18.962198    19.039971    18.957265           90           90           90 
    7000    80.423344   -126.02383   -119.29792   -126.02383            0    711.49335    19.141671    18.836519    19.089171    6882.8383   -120.12279    1257.2777    997.32517    1563.7835    329.41476   -1345.2312    19.141671    18.836519    19.089171           90           90           90 
   26500    80.057771   -126.21113   -119.51579   -126.21113            0    1540.0428    19.003224    18.830042    19.092939    6832.0553    839.28821    1933.1908    1847.6494   -753.80266   -504.98996    464.90557    19.003224    18.830042    19.092939           90           90           90 
    7500    80.433525   -126.30307   -119.57631   -126.30307            0    1752.0019    18.845515    19.006708     19.06484    6828.8578    2376.1739    1504.6215    1375.2104    506.55607    1376.0197   -777.02852    18.845515    19.006708     19.06484           90           90           90 
   27000    80.606096   -125.91694   -119.17575   -125.91694            0    317.89739    18.982909    19.116058    18.989811     6890.992    1063.4097    638.35651   -748.07407   -276.60286    1677.3144   -1988.0202    18.982909    19.116058    18.989811           90           90           90 
    8000    78.820289   -126.27418   -119.68234   -126.27418            0    1049.6235    18.950245     19.07837     18.88274    6826.8619    739.44256    963.40754    1446.0203   -378.97903    159.37159   -243.03705    18.950245     19.07837     18.88274           90           90           90 
   27500    80.115205   -126.20571   -119.50557   -126.20571            0   -1390.4524    18.980464    19.137233    18.973999    6891.9933   -1539.1161   -2071.5717   -560.66954    1832.5786   -2043.3424   -1010.2374    18.980464    19.137233    18.973999           90           90           90 
    8500      79.6378   -126.44136   -119.78114   -126.44136            0   -774.48317     19.06473    18.880884    19.027362    6849.0695   -1141.9918   -343.87067     -837.587   -21.501157     1043.397    982.24719     19.06473    18.880884    19.027362           90           90           90 
   28000    77.922736   -126.22387   -119.70709   -126.22387            0    758.50611    18.993325    18.808988    19.087948    6819.0786    479.86847    1214.4442    581.20567    609.88255   -323.79576    -72.63359    18.993325    18.808988    19.087948           90           90           90 
    9000    78.836687   -126.05795   -119.46473   -126.05795            0    137.15686    18.946961    18.997818    19.086422     6870.175    135.29726     177.9278    98.245517   -831.21893   -363.65684    1662.6018    18.946961    18.997818    19.086422           90           90           90 
   28500    80.891691   -126.24267   -119.47759   -126.24267            0    1368.6589    18.979455    18.985318    18.996614    6845.0686     1678.019    1644.7794    783.17814   -418.69994     212.0554    982.50744    18.979455    18.985318    18.996614           90           90           90 
    9500    81.764435   -126.14319   -119.30512   -126.14319            0    -981.0795    18.954211    19.068711    18.913358    6835.9001   -1044.1555   -601.36709   -1297.7159    1854.6363    1216.6892    1617.0636    18.954211    19.068711    18.913358           90           90           90 
   29000    81.487607   -126.25668   -119.44176   -126.25668            0    1648.8623    18.988163    19.176912    18.963375    6905.2159     1522.954    1027.9117    2395.7212   -960.61808    737.86616    260.56602    18.988163    19.176912    18.963375           90           90           90 
   10000     77.56892   -125.63852   -119.15133   -125.63852            0    159.37788    19.000638    18.908935    18.998735    6825.9004    402.20634   -237.31914    313.24644   -399.42933     2670.551    951.14174    19.000638    18.908935    18.998735           90           90           90 
   29500    75.525606   -125.95681   -119.64051   -125.95681            0    230.71076    19.008651    18.897859    19.114603    6866.4014   -389.10989     1159.933   -78.690779   -540.22998   -422.07567    407.42105    19.008651    18.897859    19.114603           90           90           90 
   10500    84.365123   -125.87272   -118.81715   -125.87272            0    -480.3339    19.001577    18.998217    19.102071     6895.773   -161.56065   -302.54171   -976.89933   -489.32619    237.98432    270.01533    19.001577    18.998217    19.102071           90           90           90 
   30000    79.521839   -125.66431    -119.0138   -125.66431            0   -915.88164     19.01663    18.949168    19.006179    6848.8637   -538.06111    -639.3787   -1570.2051    1307.3382    -447.9361    1501.3138     19.01663    18.949168    19.006179           90           90           90 
   11000    76.552299   -125.73907    -119.3369   -125.73907            0    177.80056    18.973607    19.060327    18.955571    6855.1526    721.92174    84.864954     -273.385   -560.92439   -2205.0003   -928.57695    18.973607    19.060327    18.955571           90           90           90 
   30500     80.44669   -125.81308   -119.08522   -125.81308            0   -994.19955    18.961625    19.149669    18.914322    6867.9573    -967.4891   -1622.8271   -392.28246    -1392.799    282.26132    1840.8479    18.961625    19.149669    18.914322           90           90           90 
   11500    77.112716   -126.34278   -119.89375   -126.34278            0   -96.354748    18.955416    18.936582    18.962051     6806.443   -743.82275    475.13215    -20.37365    2019.5159   -618.18184    2652.4633    18.955416    18.936582    18.962051           90           90           90 
   31000    77.909615   -125.74234   -119.22666   -125.74234            0    325.26972    19.002013    18.970942    19.131497    6896.6385   -191.21684    1447.8541   -280.82804    1346.2765    251.53369   -349.06691    19.002013    18.970942    19.131497           90           90           90 
   12000    77.292037   -125.82075   -119.35671   -125.82075            0    533.65388    19.002616    18.979487    19.126841    6898.2847    412.77561    1262.8191     -74.6331    534.41379   -1432.0935    1426.9077    19.002616    18.979487    19.126841           90           90           90 
   31500    82.083033   -126.32333   -119.45861   -126.32333            0    1496.5363    19.029961    18.913003    19.047847    6855.5812    1518.4309    942.37958    2028.7984    410.72001   -1065.4817    -565.7777    19.029961    18.913003    19.047847           90           90           90 
   12500    80.597533   -125.90215   -119.16167   -125.90215            0   -363.88156    18.989941    19.058059    18.960728     6862.104    -537.6447   -735.98792    181.98793    695.91984    186.10666      1987.54    18.989941    19.058059    18.960728           90           90           90 
   32000    81.083576   -126.37218   -119.59105   -126.37218            0    1706.6702    18.936648     19.10629    18.846995    6819.0139    1476.4009    1165.5604    2478.0494    158.58413    840.96842     966.0671    18.936648     19.10629    18.846995           90           90           90 
   13000    81.791782   -125.83103   -118.99068   -125.83103            0   -621.20618    18.937168    18.985445    18.981809    6824.5406    13.970605   -764.08627   -1113.5029    448.06936   -1976.2948   -1575.2062    18.937168    18.985445    18.981809           90           90           90 
   32500    77.095734    -126.0627   -119.61508    -126.0627            0    132.82731    18.995435    19.002896    19.091409    6891.3928   -185.64272    234.73383    349.39083    2423.9076    812.61058     547.4111    18.995435    19.002896    19.091409           90           90           90 
   13500    80.259978   -126.41761   -119.70537   -126.41761            0   -1994.6456    19.010413    18.891389    19.082589    6853.1894    -1772.604   -1407.8577    -2803.475    549.25403   -2223.4016   -562.07627    19.010413    18.891389    19.082589           90           90           90 
   33000    75.359404   -125.82211   -119.51971   -125.82211            0   -1936.8789    19.040642    18.920225    19.115762    6886.5152    -2291.693   -1609.7276    -1909.216   -247.49511     420.3255   -2045.6598    19.040642    18.920225    19.115762           90           90           90 
   14000    75.264993   -125.95455   -119.66003   -125.95455            0    -273.6729    19.041697     19.09248    18.987023    6902.7931    -120.0034   -769.34273    68.327435   -1578.2792   -477.62399   -474.20593    19.041697     19.09248    18.987023           90           90           90 
   33500    78.031347   -126.28312   -119.75726   -126.28312            0   -1043.2147    18.960712    19.075533    18.885271     6830.532   -838.35953   -1381.1943   -910.09032    1337.2221   -450.70423   -946.64253    18.960712    19.075533    18.885271           90           90           90 
   14500     74.71617   -126.21149   -119.96288   -126.21149            0   -189.17941    18.867449    19.093472    18.969036    6833.5025   -163.29638   -198.91241   -205.32944     23.34217    108.29277   -1412.0623    18.867449    19.093472    18.969036           90           90           90 
   34000    74.222411   -126.29696   -120.08964   -126.29696            0   -923.28308    18.962213    19.031333    19.020352    6863.9921   -481.17669   -1530.4711   -758.20142   -1031.3386   -1405.3253    667.57726    18.962213    19.031333    19.020352           90           90           90 
   15000    74.531025   -125.88394   -119.65081   -125.88394            0    133.30805     18.98813    18.804374    19.056488    6804.3079     866.9115    489.68285   -956.67021     1779.769   -669.79169   -611.91607     18.98813    18.804374    19.056488           90           90           90 
   34500     75.79326   -126.53576   -120.19707   -126.53576            0    393.15465    19.026807    18.906317    19.138544    6884.6481   -138.40274    1107.2452    210.62146    194.41853    231.02967    372.74378    19.026807    18.906317    19.138544           90           90           90 
   15500    75.626916   -125.90009   -119.57531   -125.90009            0    1262.6449    19.129228    18.987979    19.035693    6914.2471    629.71642    1101.8003    2056.4181    850.43102    1137.2174    2756.5279    19.129228    18.987979    19.035693           90           90           90 
   35000    74.595364   -126.69601    -120.4575   -126.69601            0     1762.694    18.996924    19.059666    18.932162    6854.8631    1865.9537    1698.8184      1723.31    -50.47184   -150.06189   -674.83797    18.996924    19.059666    18.932162           90           90           90 
   16000    77.093569   -126.03757   -119.59013   -126.03757            0    -1587.208    18.881267    19.181401    18.991003    6877.9555   -875.37926   -2419.5651   -1466.6795   -572.90293    716.43856   -380.44272    18.881267    19.181401    18.991003           90           90           90 
   35500    76.151347   -126.30246   -119.93383   -126.30246            0   -541.09958    18.975963    19.037677    18.936876    6841.1025   -1508.8943    165.46459   -279.86905   -834.60551   -467.57699   -895.46601    18.975963    19.037677    18.936876           90           90           90 
   16500    83.106143   -126.55172   -119.60145   -126.55172            0   -678.68731    18.960591    18.927336    19.009431    6821.9809   -1154.0424   -613.53363   -268.48588    681.69042   -1073.6096   -819.40078    18.960591    18.927336    19.009431           90           90           90 
   36000    78.320014   -126.44947   -119.89947   -126.44947            0   -1849.3367    18.971379    18.896624    19.177175    6874.9215   -1537.0436   -2236.3095    -1774.657     1538.567   -1732.4031     433.4646    18.971379    18.896624    19.177175           90           90           90 
   17000    79.235214   -126.15826   -119.53171   -126.15826            0     534.9423    19.051565    18.871421     19.01617    6836.8855     721.4699    1057.6423   -174.28531   -1074.5671   -717.20023    320.98524    19.051565    18.871421     19.01617           90           90           90 
   36500    74.961406   -125.97947   -119.71035   -125.97947            0   -630.34537    19.026172    19.029854    18.954327    6862.7034   -764.45534   -461.71192   -664.86885    -1531.892   -821.64099    1289.3556    19.026172    19.029854    18.954327           90           90           90 
   17500    75.865216   -125.67749   -119.33278   -125.67749            0    13.832057    18.936435    19.119383    19.045514    6895.4849     211.4106   -333.09329    163.17886   -730.65149    641.09523   -1424.8843    18.936435    19.119383    19.045514           90           90           90 
   37000    78.352472   -126.28362    -119.7309   -126.28362            0   -163.60584    19.038014    19.126968    18.871217    6871.7551   -158.10157   -1085.9486    753.23263   -469.18701     386.2585    174.02632    19.038014    19.126968    18.871217           90           90           90 
   18000    76.920085   -126.44477   -120.01184   -126.44477            0   -342.93078    18.981177    19.029811    18.995799    6861.4391   -671.94687    -214.8747   -141.97076   -163.88879   -557.38359   -1159.0099    18.981177    19.029811    18.995799           90           90           90 
   37500    76.187595   -126.12991   -119.75824   -126.12991            0    -607.0995    18.884437    18.904368    19.232588    6866.0022    381.52788   -592.54451   -1610.2819   -560.45456    411.77458   -1490.4289    18.884437    18.904368    19.232588           90           90           90 
   18500    77.356648   -126.35148   -119.88204   -126.35148            0    527.52532    19.045083    18.870792    18.986793    6823.7735    46.308158    252.18725    1284.0806   -561.94124   -1766.4992   -1228.7985    19.045083    18.870792    18.986793           90           90           90 
   38000    79.630528   -125.97734   -119.31773   -125.97734            0    295.28783    19.011596    18.964359    19.032737    6862.1152    19.531039    338.13007    528.20237    1446.6075    1784.3322    1537.4986    19.011596    18.964359    19.032737           90           90           90 
   19000    76.763711   -126.14421   -119.72435   -126.14421            0   -19.063934    18.900258    19.021035    19.072523    6856.6189    132.91379   -57.408214   -132.69738    228.02223   -839.92511    188.98353    18.900258    19.021035    19.072523           90           90           90 
   38500    78.692238   -126.01425   -119.43312   -126.01425            0   -1187.1017    19.105713     19.14451    18.759479    6861.6456   -1786.6451   -1360.0621   -414.59791   -137.52376   -1209.7289    500.15907    19.105713     19.14451    18.759479           90           90           90 
   19500    79.519778   -126.17104   -119.52069   -126.17104            0   -456.03899    18.989556    19.148366    18.982878    6902.5346   -171.21028   -376.78468   -820.12203    1383.9692    -559.3423   -531.08725    18.989556    19.148366    18.982878           90           90           90 
   39000    77.741383   -126.29616   -119.79455   -126.29616            0    79.306096    18.899864    18.995886    19.165988    6880.9667    581.69827    444.96379   -788.74377   -511.38801    1220.7413   -555.92519    18.899864    18.995886    19.165988           90           90           90 
   20000    74.415508   -126.17461   -119.95114   -126.17461            0   -364.32795    19.084505    18.885817    18.989937    6844.4761   -619.84101   -619.93882    146.79597    99.060926   -1699.1928    1260.6397    19.084505    18.885817    18.989937           90           90           90 
   39500    82.487391   -126.27372   -119.37519   -126.27372            0    1589.5742    18.923885    18.928427    19.136841    6854.8044    1774.4451    1666.7766     1327.501    70.470086   -3726.5378   -1985.1461    18.923885    18.928427    19.136841           90           90           90 
   20500    72.881564   -125.97001   -119.87483   -125.97001            0    1299.6195    18.885694    18.904571    19.097553    6818.3214    1856.5494    1803.6471    238.66211    609.20253   -921.61113   -1815.8258    18.885694    18.904571    19.097553           90           90           90 
   40000     80.16479   -126.40821   -119.70392   -126.40821            0     1988.376    19.115912    19.031993    18.843061    6855.3676    1182.7478    1855.8133    2926.5671   -903.92355    664.09325   -516.29853    19.115912    19.031993    18.843061           90           90           90 
   21000     77.45065   -126.51656   -120.03926   -126.51656            0    989.39172    18.938338    19.142935     18.93864     6865.927    1453.6653    243.55767    1270.9522    592.87827   -855.33747   -194.40244    18.938338    19.142935     18.93864           90           90           90 
   40500     75.30234   -126.13116   -119.83353   -126.13116            0    20.393259    18.958677    19.043951     19.02824    6870.1104  -0.20742943    401.19935   -339.81215   -78.550723   -743.66241    1418.2276    18.958677    19.043951     19.02824           90           90           90 
   21500    74.381845   -126.37167   -120.15102   -126.37167            0   -388.88369      19.0855    18.967623     18.98424    6872.4195   -647.46289    135.33004   -654.51824   -1114.5679   -457.17524    1963.9143      19.0855    18.967623     18.98424           90           90           90 
   41000    81.264801   -126.36514   -119.56886   -126.36514            0    -1267.443    18.947784    19.004793    19.078744    6870.2311   -1756.5599   -1093.3737   -952.39535     950.8425    1329.9855    195.18464    18.947784    19.004793    19.078744           90           90           90 
   22000      80.3798   -126.54885   -119.82658   -126.54885            0    -273.0492    18.974288     18.89543    19.138068    6861.5204   -356.13756    174.52342   -637.53345    1033.0403   -492.35695   -487.85019    18.974288     18.89543    19.138068           90           90           90 
   41500    79.184739   -126.50461   -119.88228   -126.50461            0   -445.72981    19.031103     18.94982    18.998049    6851.3799   -811.20191    84.817096   -610.80461   -1813.8208   -337.05576   -678.80774    19.031103     18.94982    18.998049           90           90           90 
   22500    76.919125   -126.23363   -119.80078   -126.23363            0   -1319.4647    18.898761    19.077431    18.963767    6837.1928   -983.36543   -1792.5315   -1182.4973    150.74059   -813.36381    1682.2128    18.898761    19.077431    18.963767           90           90           90 
   42000    78.197102   -126.21436   -119.67464   -126.21436            0    1047.4732    18.962872     19.00961    18.940278    6827.5312    1474.5875    685.58024    982.25195   -854.43901   -399.65226    -176.1414    18.962872     19.00961    18.940278           90           90           90 
   23000    77.589743   -126.52366   -120.03472   -126.52366            0   -1827.1843    19.007386    19.001522    18.952795    6845.1669   -1740.3303   -2353.3148   -1387.9076    821.59209    1002.6962   -1249.0786    19.007386    19.001522    18.952795           90           90           90 
   42500    78.475923   -126.12019   -119.55715   -126.12019            0    230.58771     18.98599    19.094009    19.058705    6909.1364    806.25246   -638.90704     524.4177   -1697.7053   -596.99547   -1100.0595     18.98599    19.094009    19.058705           90           90           90 
   23500     78.22119   -126.11191   -119.57017   -126.11191            0    351.41612    19.036849    18.940292     19.11928    6893.7142    183.81864    944.45928   -74.029551   -1091.8652    705.57779    102.45834    19.036849    18.940292     19.11928           90           90           90 
   43000    77.601623   -125.84144   -119.35151   -125.84144            0    1909.6729    19.029158    18.927826    19.089421    6875.6393    1725.3647    2404.1024    1599.5516    514.53922    572.08347    1067.6866    19.029158    18.927826    19.089421           90           90           90 
   24000    81.681281   -126.13306   -119.30195   -126.13306            0    1886.0716    18.954855    19.066388    18.996509      6865.35    1740.4629    2377.9043    1539.8477    1293.1304   -782.71634   -493.34685    18.954855    19.066388    18.996509           90           90           90 
   43500    75.897098   -126.06139   -119.71401   -126.06139            0    1232.7593    18.944433    18.974277    18.917037    6799.8599    808.06729    1454.3183    1435.8923    732.95387    510.62294   -783.81306    18.944433    18.974277    18.917037           90           90           90 
   24500    80.047015     -126.202   -119.50757     -126.202            0     2550.674    18.956598    18.977942    18.928489    6809.6603    2519.7267    2420.6143     2711.681    142.45442    22.618241    169.44543    18.956598    18.977942    18.928489           90           90           90 
   44000    78.112115   -126.49909   -119.96647   -126.49909            0    -694.4315    19.015827    19.114925    19.006645    6908.6511   -13.868367   -1041.0974   -1028.3288    56.301592    1394.6939   -1098.7498    19.015827    19.114925    19.006645           90           90           90 
   25000     80.68007    -126.0063   -119.25892    -126.0063            0   -474.33338    19.047106    18.931979    19.123653    6895.9783   -1447.5966    147.41846   -122.82198      1163.32   -2312.4305    82.677576    19.047106    18.931979    19.123653           90           90           90 
   44500    77.366272   -126.17157   -119.70133   -126.17157            0   -1362.1251    19.032088    18.981581    19.133437    6912.1289     -1963.48   -1087.8781   -1035.0173    1412.1124    270.25518   -602.57857    19.032088    18.981581    19.133437           90           90           90 
   25500      78.2279   -125.62097   -119.07867   -125.62097            0   -1655.7207    18.981356    19.100303     19.01405     6893.537    -1992.063   -1839.9482   -1135.1508   -719.11335   -575.66739    801.16901    18.981356    19.100303     19.01405           90           90           90 
   45000    75.537222   -126.26348    -119.9462   -126.26348            0    613.22308    18.948988    18.960996    18.999587    6826.3937    882.51714    547.44517    409.70692   -1542.1673   -998.71394   -688.27752    18.948988    18.960996    18.999587           90           90           90 
   26000    79.887434   -125.96788   -119.28678   -125.96788            0    1300.8685    18.962198    19.039971    18.957265    6844.3254    1058.0317    1224.2709     1620.303   -628.35595   -323.56723    978.90823    18.962198    19.039971    18.957265           90           90           90 
   45500    77.906265    -126.6532    -120.1378    -126.6532            0   -31.150169    18.970514    19.083285    18.907062    6844.7294    490.63242   -590.48284    6.3999171   -19.241057    456.85184   -1243.0774    18.970514    19.083285    18.907062           90           90           90 
   26500    80.057772   -126.21113   -119.51579   -126.21113            0    1540.0429    19.003224    18.830042    19.092939    6832.0553    839.28834    1933.1909    1847.6495   -753.80263   -504.98998    464.90558    19.003224    18.830042    19.092939           90           90           90 
   46000    77.004067   -126.48831   -120.04836   -126.48831            0   -625.78399    19.023462    18.981042     19.09985    6896.6719   -1294.9956    201.31761     -783.674   -268.18929   -876.50032    556.81745    19.023462    18.981042     19.09985           90           90           90 
   27000    80.606096   -125.91694   -119.17575   -125.91694            0    317.89737    18.982909    19.116058    18.989811     6890.992    1063.4097    638.35648   -748.07406   -276.60281    1677.3144   -1988.0203    18.982909    19.116058    18.989811           90           90           90 
   46500    78.169377   -126.31755   -119.78014   -126.31755            0    904.92599    19.012663    19.008788    19.100959    6903.2335    642.76682    1471.0336    600.97751   -24.986637    663.62549    290.94418    19.012663    19.008788    19.100959           90           90           90 
   27500    80.115205   -126.20571   -119.50557   -126.20571            0   -1390.4525    18.980464    19.137233    18.973999    6891.9933   -1539.1163   -2071.5717   -560.66962    1832.5786   -2043.3423   -1010.2374    18.980464    19.137233    18.973999           90           90           90 
   47000    80.477052   -126.40258   -119.67218   -126.40258            0    927.90393    18.971913    19.056343    18.869912     6822.139    1588.7058    280.40218    914.60382     67.57063    593.50363     930.2683    18.971913    19.056343    18.869912           90           90           90 
   28000    77.922736   -126.22387   -119.70709   -126.22387            0     758.5061    18.993325    18.808988    19.087948    6819.0786    479.86849    1214.4442    581.20565    609.88253   -323.79569   -72.633537    18.993325    18.808988    19.087948           90           90           90 
   47500     80.69496   -126.10843   -119.35981   -126.10843            0    164.44538    19.010849     18.96085     19.06948    6873.8202    7.9663563   -13.743046    499.11282   -2010.7075   -506.67051   -2296.6359    19.010849     18.96085     19.06948           90           90           90 
   28500    80.891691   -126.24267   -119.47759   -126.24267            0    1368.6587    18.979455    18.985318    18.996614    6845.0686    1678.0188    1644.7793    783.17803   -418.70006    212.05536    982.50715    18.979455    18.985318    18.996614           90           90           90 
   48000    76.414565   -126.07059   -119.67994   -126.07059            0   -1204.2162    19.005255    19.016594    19.122044    6910.9975   -1128.1952   -1223.4909   -1260.9626    2422.5429    649.70133    -900.2447    19.005255    19.016594    19.122044           90           90           90 
   29000    81.487606   -126.25668   -119.44176   -126.25668            0    1648.8622    18.988163    19.176912    18.963375    6905.2159    1522.9539    1027.9115     2395.721   -960.61816    737.86623    260.56609    18.988163    19.176912    18.963375           90           90           90 
   48500    78.580932   -126.07576   -119.50394   -126.07576            0    2800.3573    19.016278    19.076643    18.930995    6867.5351    2564.1235    2912.0314    2924.9171    1436.7071    346.65309    273.91126    19.016278    19.076643    18.930995           90           90           90 
   29500    75.525606   -125.95681   -119.64051   -125.95681            0    230.71089    19.008651    18.897859    19.114603    6866.4014   -389.10978     1159.933   -78.690525   -540.23006   -422.07568    407.42103    19.008651    18.897859    19.114603           90           90           90 
   49000    83.438364   -126.31148   -119.33342   -126.31148            0    239.94313    18.995744    18.950092    19.018523    6846.1185    409.17653   -110.91396    421.56682    119.48752   -434.29262     1230.345    18.995744    18.950092    19.018523           90           90           90 
   30000    79.521839   -125.66431    -119.0138   -125.66431            0   -915.88178     19.01663    18.949168    19.006179    6848.8637   -538.06138   -639.37867   -1570.2053     1307.338   -447.93581    1501.3137     19.01663    18.949168    19.006179           90           90           90 
   49500    84.759918   -125.56722   -118.47864   -125.56722            0    282.39919    18.960697    18.949371    19.115759    6868.1639    849.61365    367.09266   -369.50874   -332.50373   -1026.4448    1594.6191    18.960697    18.949371    19.115759           90           90           90 
   30500     80.44669   -125.81308   -119.08522   -125.81308            0   -994.19952    18.961625    19.149669    18.914322    6867.9573   -967.48894    -1622.827   -392.28257   -1392.7987    282.26147     1840.848    18.961625    19.149669    18.914322           90           90           90 
   50000    77.135658   -125.87074   -119.41978   -125.87074            0   -138.36409    19.037535    19.182358    18.984233    6932.7535   -654.47014   -397.18778    636.56564   -353.07833    1988.5098    1496.6761    19.037535    19.182358    18.984233           90           90           90 
   31000    77.909615   -125.74234   -119.22666   -125.74234            0    325.26963    19.002013    18.970942    19.131497    6896.6385   -191.21683    1447.8539   -280.82818    1346.2763    251.53357    -349.0666    19.002013    18.970942    19.131497           90           90           90 
   50500    77.005888   -125.99703   -119.55692   -125.99703            0   -582.93097    19.043411    18.937088    18.998016    6851.1931   -1290.5164   -289.83042   -168.44615   -69.590688   -1606.2208    76.153222    19.043411    18.937088    18.998016           90           90           90 
   31500    82.083032   -126.32332   -119.45861   -126.32332            0    1496.5365    19.029961    18.913003    19.047847    6855.5812    1518.4314    942.37963    2028.7985    410.72023   -1065.4819    -565.7781    19.029961    18.913003    19.047847           90           90           90 
   51000    78.856746   -125.78924   -119.19434   -125.78924            0   -557.00397    18.929431    18.912962    19.088276    6833.8247   -329.10609   -485.57716   -856.32866   -273.39735    310.65545   -1878.0706    18.929431    18.912962    19.088276           90           90           90 
   32000    81.083575   -126.37218   -119.59105   -126.37218            0    1706.6704    18.936648     19.10629    18.846995    6819.0139     1476.401    1165.5608    2478.0495    158.58398      840.969    966.06706    18.936648     19.10629    18.846995           90           90           90 
   51500    78.561863   -126.11992   -119.54969   -126.11992            0   -1276.5534    18.986119    19.148265     18.97629    6898.8536   -926.99297   -1261.5234   -1641.1437   -791.02808   -1542.5519   -489.53008    18.986119    19.148265     18.97629           90           90           90 
   32500    77.095732    -126.0627   -119.61508    -126.0627            0    132.82676    18.995435    19.002896    19.091409    6891.3928    -185.6433    234.73326    349.39032    2423.9069    812.61068    547.41123    18.995435    19.002896    19.091409           90           90           90 
   52000    72.689928   -126.20192   -120.12277   -126.20192            0    685.70959    19.097395    19.008557     19.02103    6904.8988    752.07067    229.44841    1075.6097   -1780.0155    253.00739   -559.70477    19.097395    19.008557     19.02103           90           90           90 
   33000    75.359405   -125.82211   -119.51971   -125.82211            0   -1936.8808    19.040642    18.920225    19.115762    6886.5152    -2291.695   -1609.7294   -1909.2179   -247.49562     420.3257   -2045.6595    19.040642    18.920225    19.115762           90           90           90 
   52500    83.312143   -126.12366   -119.15616   -126.12366            0    536.02581    18.988579    18.934757    19.079485    6859.9169    619.50239    683.14524    305.42979    133.19759    1872.7708    854.96709    18.988579    18.934757    19.079485           90           90           90 
   33500    78.031351   -126.28312   -119.75726   -126.28312            0   -1043.2147    18.960712    19.075533    18.885271     6830.532   -838.35967   -1381.1945   -910.08999    1337.2221   -450.70536   -946.64195    18.960712    19.075533    18.885271           90           90           90 
   53000    75.770535   -126.16896   -119.83217   -126.16896            0    1080.8558    18.912491    19.065203    18.978687    6843.1544     940.6676     656.0466    1645.8531   -41.524171    120.39683   -185.96373    18.912491    19.065203    18.978687           90           90           90 
   34000     74.22241   -126.29696   -120.08964   -126.29696            0   -923.28195    18.962213    19.031333    19.020352    6863.9921   -481.17526   -1530.4696   -758.20101   -1031.3399   -1405.3256    667.57638    18.962213    19.031333    19.020352           90           90           90 
   53500    74.568478    -125.9938   -119.75754    -125.9938            0    580.82776    19.063475    19.018411    19.014545    6893.8561    249.28028    1095.1666    398.03643    -119.5797   -510.31967   -693.40687    19.063475    19.018411    19.014545           90           90           90 
   34500     75.79326   -126.53576   -120.19707   -126.53576            0    393.15371    19.026807    18.906317    19.138544    6884.6481   -138.40355    1107.2433    210.62137    194.41765    231.02935    372.74196    19.026807    18.906317    19.138544           90           90           90 
   54000     80.87332   -126.17185   -119.40831   -126.17185            0    853.39593    19.049231    18.960978    19.117393    6905.0503    1093.8535    869.70272    596.63154    738.38452   -874.46527    1285.7837    19.049231    18.960978    19.117393           90           90           90 
   35000    74.595363   -126.69601    -120.4575   -126.69601            0    1762.6924    18.996924    19.059666    18.932162    6854.8631    1865.9516    1698.8163    1723.3094   -50.472258   -150.06117   -674.83838    18.996924    19.059666    18.932162           90           90           90 
   54500    75.101918   -126.41353   -120.13266   -126.41353            0    953.70959    18.905075    19.066797    18.977833    6840.7351    1015.4059    776.01683    1069.7061    924.29393     276.8356   -981.64964    18.905075    19.066797    18.977833           90           90           90 
   35500    76.151346   -126.30246   -119.93383   -126.30246            0   -541.09976    18.975963    19.037677    18.936876    6841.1025   -1508.8939    165.46455   -279.86989    -834.6055   -467.57522   -895.46541    18.975963    19.037677    18.936876           90           90           90 
   55000    76.933017   -126.20519   -119.77118   -126.20519            0    34.736331    18.980786     18.96385    18.950105    6821.0669    134.74896   -103.28669    72.746722     1146.408    118.77732   -223.41532    18.980786     18.96385    18.950105           90           90           90 
   36000    78.320018   -126.44947   -119.89947   -126.44947            0   -1849.3374    18.971379    18.896624    19.177175    6874.9215   -1537.0436   -2236.3096   -1774.6588    1538.5662   -1732.4012     433.4653    18.971379    18.896624    19.177175           90           90           90 
   55500    80.094939   -126.49354   -119.79509   -126.49354            0   -1483.9768    19.080772    18.967015    19.154451    6932.0972   -1498.4306   -1131.2204   -1822.2793   -24.719263   -838.49397   -1926.4652    19.080772    18.967015    19.154451           90           90           90 
   36500    74.961409   -125.97947   -119.71035   -125.97947            0   -630.34337    19.026172    19.029854    18.954327    6862.7034   -764.45245   -461.71125   -664.86643   -1531.8921   -821.64059    1289.3565    19.026172    19.029854    18.954327           90           90           90 
   56000    83.063015   -126.23789   -119.29122   -126.23789            0   -1970.0169    18.988743    19.118805    19.021174    6905.4867   -2224.2912   -2278.2291   -1407.5305   -431.43803    252.02241    828.67412    18.988743    19.118805    19.021174           90           90           90 
   37000    78.352472   -126.28362    -119.7309   -126.28362            0   -163.60378    19.038014    19.126968    18.871217    6871.7551   -158.09798   -1085.9445    753.23111   -469.18715    386.25858    174.02335    19.038014    19.126968    18.871217           90           90           90 
   56500    78.235044   -125.79266   -119.24976   -125.79266            0    2279.7819    18.911238    18.990485    18.939958     6801.975    2572.9698    2146.9272    2119.4485   -1365.9917    1102.6529    308.44553    18.911238    18.990485    18.939958           90           90           90 
   37500    76.187593   -126.12991   -119.75824   -126.12991            0   -607.10709    18.884437    18.904368    19.232588    6866.0022    381.52102    -592.5556   -1610.2867   -560.45968    411.77209   -1490.4306    18.884437    18.904368    19.232588           90           90           90 
   57000    77.168857   -126.37257   -119.91883   -126.37257            0    360.02894    19.039581    18.935582     19.06735    6874.2668    717.94015    10.418322    351.72835    739.45834    1421.5653    832.76379    19.039581    18.935582     19.06735           90           90           90 
   38000    79.630524   -125.97734   -119.31773   -125.97734            0    295.28149    19.011596    18.964359    19.032737    6862.1151    19.524072    338.12605    528.19434    1446.5983    1784.3337    1537.5012    19.011596    18.964359    19.032737           90           90           90 
   57500    79.123776   -126.34498   -119.72775   -126.34498            0   -1207.8631    19.042161     19.06081    19.059467    6917.8051   -1453.0007   -876.39573   -1294.1929   -2163.8045   -163.46681    363.90671    19.042161     19.06081    19.059467           90           90           90 
   38500    78.692249   -126.01425   -119.43312   -126.01425            0   -1187.0999    19.105713     19.14451    18.759479    6861.6457   -1786.6443   -1360.0592   -414.59632   -137.52474   -1209.7299    500.15956    19.105713     19.14451    18.759479           90           90           90 
   58000    79.750426   -126.28437   -119.61474   -126.28437            0    11.959052    18.944389    19.045658    19.024609    6864.2377    100.15155   -135.21583    70.941442    1183.1683    -131.0296    972.04473    18.944389    19.045658    19.024609           90           90           90 
   39000     77.74139   -126.29616   -119.79455   -126.29616            0    79.300746    18.899864    18.995886    19.165988    6880.9667    581.69619    444.95583   -788.74979   -511.39618    1220.7527   -555.91569    18.899864    18.995886    19.165988           90           90           90 
   58500    79.781948   -126.34365   -119.67139   -126.34365            0    -220.6592     18.99634    18.955063    18.990787    6838.1423   -235.66427   -35.229799   -391.08351    106.56609    2773.1484   -958.69205     18.99634    18.955063    18.990787           90           90           90 
   39500    82.487395   -126.27372   -119.37519   -126.27372            0    1589.5759    18.923885    18.928427    19.136841    6854.8044    1774.4485     1666.776    1327.5031    70.465491   -3726.5398   -1985.1423    18.923885    18.928427    19.136841           90           90           90 
   59000    76.441925   -125.84296   -119.45002   -125.84296            0   -285.11556    19.042239    19.012516    19.027909    6888.8811    -829.3504   -411.39639    385.40012    29.058134     2137.502    1652.5195    19.042239    19.012516    19.027909           90           90           90 
   40000    80.164774   -126.40821   -119.70392   -126.40821            0    1988.3727    19.115912    19.031993    18.843061    6855.3676    1182.7468    1855.8091    2926.5623   -903.92868    664.09289   -516.30572    19.115912    19.031993    18.843061           90           90           90 
   59500    79.326346   -126.15231   -119.51815   -126.15231            0    245.23426    18.974764    19.071651    19.081391     6905.175    677.27489   -32.806793    91.234684    142.06148    -2.667419    270.61491    18.974764    19.071651    19.081391           90           90           90 
   40500    75.302333   -126.13116   -119.83353   -126.13116            0    20.380873    18.958678    19.043951     19.02824    6870.1104  -0.21604077    401.19216    -339.8335   -78.543551   -743.67735    1418.2372    18.958678    19.043951     19.02824           90           90           90 
   60000     79.21558   -126.22232   -119.59742   -126.22232            0    2681.2893    18.989977     19.00861    19.002136    6859.2592    2869.9694    2683.4208    2490.4777   -206.41744     1061.761    559.85118    18.989977     19.00861    19.002136           90           90           90 
   41000    81.264826   -126.36514   -119.56886   -126.36514            0   -1267.4232    18.947784    19.004793    19.078744    6870.2312   -1756.5418   -1093.3579   -952.36976    950.84981    1329.9654     195.1929    18.947784    19.004793    19.078744           90           90           90 
   60500     74.51489   -126.07273   -119.84095   -126.07273            0    2494.7371    19.033391    18.992937     18.98578    6863.3595     2856.483    2199.4825    2428.2459   -722.50254    1563.0254    -860.4384    19.033391    18.992937     18.98578           90           90           90 
   41500     79.18478   -126.50461   -119.88228   -126.50461            0   -445.69429    19.031103     18.94982    18.998049    6851.3799   -811.16262    84.857774   -610.77804   -1813.8091   -337.05836   -678.82257    19.031103     18.94982    18.998049           90           90           90 
   61000    75.120064   -125.89404   -119.61165   -125.89404            0   -928.71807    18.981597    19.028804    19.104195    6900.3795   -1744.2988    -686.2862   -355.56923    500.62242    -929.0971   -2758.4402    18.981597    19.028804    19.104195           90           90           90 
   42000    78.197158   -126.21437   -119.67464   -126.21437            0    1047.4998    18.962872     19.00961    18.940278    6827.5311    1474.6262    685.59009    982.28318   -854.44573   -399.64443   -176.12455    18.962872     19.00961    18.940278           90           90           90 
   61500    73.355217   -126.04149    -119.9067   -126.04149            0    -409.1491    18.951487    19.084778    19.050895    6890.4214    408.85626   -1056.6132   -579.69033     919.6486     2578.237   -965.36862    18.951487    19.084778    19.050895           90           90           90 
   42500    78.475881   -126.12019   -119.55715   -126.12019            0    230.57741     18.98599    19.094009    19.058705    6909.1364    806.24106   -638.92107    524.41225   -1697.7174   -597.01495   -1100.0946     18.98599    19.094009    19.058705           90           90           90 
   62000    78.200228   -125.75125   -119.21126   -125.75125            0   -71.627005    19.136331    18.949647    18.886969    6848.9199   -1092.8563    329.86516     548.1101   -830.68683    653.19055    1072.9191    19.136331    18.949647    18.886969           90           90           90 
   43000    77.601597   -125.84144   -119.35151   -125.84144            0    1909.6366    19.029158    18.927826    19.089421    6875.6392    1725.3221    2404.0654    1599.5224    514.55526    572.09605     1067.639    19.029158    18.927826    19.089421           90           90           90 
   62500    78.245032   -125.92417   -119.38043   -125.92417            0   -329.49619    18.920555    18.942882    19.124273    6854.3278   -34.645768    52.880985   -1006.7238   -1359.2139    49.078927     641.4402    18.920555    18.942882    19.124273           90           90           90 
   43500    75.896948   -126.06138   -119.71401   -126.06138            0     1232.754    18.944433    18.974278    18.917037    6799.8599    808.04103    1454.3131    1435.9078    732.90847    510.64746   -783.82772    18.944433    18.974278    18.917037           90           90           90 
   63000    79.526523   -125.81705   -119.16614   -125.81705            0   -1122.0115    18.901505    19.187516    19.174904    6954.2186   -689.74599   -1754.1923   -922.09625     127.5028   -629.30322   -771.95629    18.901505    19.187516    19.174904           90           90           90 
   44000     78.11222    -126.4991   -119.96647    -126.4991            0   -694.41063    19.015827    19.114925    19.006645    6908.6512   -13.835871   -1041.0742   -1028.3218    56.273507    1394.6732   -1098.7101    19.015827    19.114925    19.006645           90           90           90 
   63500    78.390879   -126.10623    -119.5503   -126.10623            0   -264.33806    19.145181     18.99112    18.868225    6860.2683   -1283.7628   -273.40091    764.14958   -706.10582     351.0758    97.838076    19.145181     18.99112    18.868225           90           90           90 
   44500    77.366393   -126.17158   -119.70133   -126.17158            0   -1362.0541    19.032089    18.981581    19.133437    6912.1289   -1963.4394   -1087.7995   -1034.9235    1412.0789    270.26874   -602.52484    19.032089    18.981581    19.133437           90           90           90 
   64000     79.40849   -125.94573   -119.30469   -125.94573            0   -1586.0207    19.009977    18.950027    19.069437    6869.5659   -1772.6071   -1927.2631   -1058.1917    655.30404   -182.27846   -323.37969    19.009977    18.950027    19.069437           90           90           90 
   45000    75.537307   -126.26349    -119.9462   -126.26349            0    613.29998    18.948988    18.960997    18.999586    6826.3935    882.60042    547.51547    409.78405   -1542.1011   -998.73842    -688.3516    18.948988    18.960997    18.999586           90           90           90 
   64500    76.598732   -126.11816   -119.71211   -126.11816            0   -959.16103     18.89421    19.081507    19.125721    6895.3964   -778.56547   -832.95736   -1265.9603   -618.91105    836.33548    584.29561     18.89421    19.081507    19.125721           90           90           90 
   45500    77.906417   -126.65321    -120.1378   -126.65321            0   -31.039909    18.970515    19.083284    18.907063    6844.7295    490.68472   -590.32065    6.5162109   -19.241752    456.73964   -1243.0789    18.970515    19.083284    18.907063           90           90           90 
[...]
   41250    221.67572   -380.01869   -315.06045   -380.01869            0    1144.9293    27.585983    22.806481    29.497818    18558.233    86.621614    2407.2387    940.92762    -561.2326    2232.8071    922.47812    27.585983    22.806485    31.423094    90.180787    110.15955    90.034762 
   42500    223.44404   -378.15164   -312.67522   -378.15164            0    553.32633    27.495446    22.862756    29.451043    18513.564    2219.8136    257.23146    -817.0661   -982.49059   -867.00228    183.49406    27.495446    22.862773    31.335593    90.205337    109.97065    90.071477 
   43750    224.73359   -377.59289   -311.73859   -377.59289            0   -1042.6166    27.474298    23.111251    29.289934    18598.095   -1565.3733   -1037.8962   -524.58039   -1048.0868    -352.1934   -1639.3384    27.474298    23.111312    31.070645    89.927656    109.49159    89.868457 
   45000    222.29175   -379.48213   -314.34336   -379.48213            0    1266.7873    27.421424    23.207023    29.129866    18537.362    2559.1129   -822.84974    2064.0988    951.39701   -646.43724    100.81753    27.421424    23.207356    30.794273    89.626704    108.91744    89.693385 
   46250    225.62194   -379.34805   -313.23343   -379.34805            0    148.92692    27.433874     23.08842    29.240357    18520.983     745.9757    459.58531   -758.78025   -2189.5249   -1004.6392   -2739.9183    27.433874    23.088644    30.870589    89.794388    108.70101    89.747681 
   47500    225.09751   -377.21262   -311.25168   -377.21262            0   -1583.3655     27.59459    22.911903    29.544215    18679.169   -1070.8686   -2165.4137   -1513.8142   -1227.7756   -454.42682    1431.9795     27.59459     22.91194    31.199615    90.139232    108.74709    90.102688 
   48750    227.60083   -377.24379   -310.54929   -377.24379            0   -385.58634    27.618148    22.758196    29.538923    18566.372    629.24816    102.99378    -1889.001    1913.2656    985.92338    276.33576    27.618148    22.758359    31.252369    90.263463    109.05741    90.216849 
   50000    225.86909   -375.02538   -308.83834   -375.02538            0    312.34617    27.658879    22.851905    29.481428    18633.974    -1956.042    2630.3873     262.6932   -1085.9855   -324.49346    1064.7215    27.658879     22.85195    31.254288     90.03422    109.39061    90.114289 
   51250    232.64466   -379.38845   -311.21594   -379.38845            0   -142.96951    27.564608    23.001973    29.312173      18585.1   -280.40539   -1366.0144    1217.5113   -142.79763   -1253.3163    775.37825    27.564608    23.002024     31.14658    89.751307    109.75989     89.87819 
   52500    228.96536   -378.04381   -310.94946   -378.04381            0    3430.4791    27.432399    23.157769    29.230259      18569.2    3000.8795    3190.5736    4099.9841   -2926.6193    1096.1806    12.360795    27.432399    23.158084    31.095652    89.702539    109.94223    89.701439 
   53750    221.70532   -377.37662    -312.4097   -377.37662            0   -792.03851    27.384287    23.168432    29.234186    18547.659   -1902.2933   -55.291954   -418.53025    505.90554   -483.89526   -583.51009    27.384287    23.168492    31.096628    89.939879    109.93001    89.869101 
   55000    223.10389   -378.26459   -312.88785   -378.26459            0   -1439.2145    27.455957     23.02428    29.330619    18541.458   -1976.4246   -1739.8254   -601.39362   -939.64123    1878.3889   -1297.4231    27.455957    23.024315    31.167227    90.343084    109.76366    90.099334 
   56250    220.13909   -375.55606   -311.04809   -375.55606            0   -244.35396    27.667794     22.84193    29.455536    18615.481    -985.1112   -966.43352    1218.4828    2531.5952    351.74588    2661.3886    27.667794    22.842048    31.238633    90.438455    109.44517    90.184333 
   57500    226.35493   -379.60095   -313.27154   -379.60095            0    1260.2877    27.745274    22.671095     29.49648    18553.751   -277.53666    1128.1136     2930.286     51.52638   -989.93071   -1309.1325    27.745274    22.671123    31.223489    90.094337    109.14538    89.911214 
   58750    228.13257   -379.33448   -312.48417   -379.33448            0   -1010.7276    27.620549    22.747212    29.497062    18532.724   -2774.2915   -726.29602    468.40486     81.03461    162.03325   -2221.6686    27.620549    22.747609    31.176889    89.725229    108.88975    89.661466 
   60000    224.99381   -378.91102   -312.98046   -378.91102            0   -892.36894    27.502638    23.043817    29.452115    18665.742    1748.2441   -2382.3849   -2042.9661   -583.24308    391.53437   -1427.2948    27.502638     23.04408     31.14361    89.673842     108.9654    89.726432 
   61250    224.02318   -378.67381   -313.02768   -378.67381            0    -224.5343    27.357005    23.173433    29.234004    18533.064   -1052.1467   -406.72742    785.27125    9.5500886   -127.05538    820.14456    27.357005    23.173434     30.97191    89.920407    109.28482    90.021295 
   62500    222.64875   -378.49401   -313.25063   -378.49401            0    271.31043    27.401086    23.159174     29.20859    18535.377     1074.564   -1332.7425    1072.1099   -561.59394    596.98875      1666.98    27.401086    23.159258    31.012969    90.084145    109.64025    90.154237 
   63750    230.94872    -377.8127   -310.13717    -377.8127            0    334.74993    27.595293    23.063578    29.359362    18685.654    516.75532    1546.9365   -1059.4421   -748.35249    1637.3507    605.69382    27.595293    23.063578    31.209611     90.04537    109.82788    90.009066 
   65000    218.86508   -378.85247   -314.71783   -378.85247            0    613.00247    27.579296    22.830358    29.351343    18480.932    664.22801    977.32799     197.4514    1087.3257    88.658825    1120.1845    27.579296    22.830394    31.207538    89.942636    109.86054    89.898715 
   66250    218.97706   -376.41753   -312.25008   -376.41753            0     1372.284    27.675735    22.860283    29.470179     18645.05    2111.5298    1412.6835    592.63862    899.34863    885.50447   -116.69771    27.675735     22.86036    31.330383    89.873515    109.84216    89.851477 
   67500    223.29795   -378.12292   -312.68931   -378.12292            0   -946.07389    27.619405    22.914527    29.416922    18617.546   -1440.9959    747.06004   -2144.2858   -33.894789   -527.22281   -874.35279    27.619405    22.914539    31.250385    89.902361    109.72351     89.93978 
   68750    221.76581   -379.06786   -314.08322   -379.06786            0   -36.471991    27.447653    23.009073    29.281289    18492.453    1838.7209   -1571.2817   -376.85515     1529.012    60.247628    64.575197    27.447653    23.009217    31.065857    90.054997    109.51437    90.202711 
   70000    216.65262   -378.15011   -314.66379   -378.15011            0   -1054.3195    27.482952    23.211203    29.313633    18699.529   -954.16819     -706.154   -1502.6364   -1795.7531    924.58751    1386.6198    27.482952    23.211555    31.068235    90.159868    109.34596    90.315498 
   71250    223.64596    -378.3333   -312.79771    -378.3333            0   -897.37151    27.348576    23.137588    29.194794    18473.884    929.24662   -2644.9628    -976.3983     1078.023   -46.036973    641.10487    27.348576    23.137603     30.91244    90.086157    109.18944    90.064605 
   72500    221.46002   -376.83154    -311.9365   -376.83154            0    307.46134    27.513569    23.018837    29.368584    18600.016   -537.26253    900.48108    559.16548   -1578.0129    2058.0146   -79.588683    27.513569    23.019895     31.10443    89.964076    109.23061    89.450652 
   73750    220.78813   -376.71855   -312.02039   -376.71855            0    -1526.123     27.77126    22.860634    29.598924    18791.427   -3234.6847    25.785922   -1369.4701    112.14618   -138.18742   -857.59946     27.77126    22.862431    31.368081    89.940655    109.33232    89.281566 
   75000    228.99123   -379.56426   -312.46233   -379.56426            0    -851.5997    27.669576      22.6274    29.426242    18423.493   -1215.1935    991.40386   -2331.0095    -797.0925    1251.9513    693.87914    27.669576    22.628101    31.223346    89.983458    109.53317    89.548935 
   76250    220.35378   -379.29674   -314.72587   -379.29674            0   -889.29256    27.640473    22.880107    29.501411    18657.193    -370.4274   -1299.2755   -998.17478     1005.667      126.987    2375.0257    27.640473     22.88018     31.31308    90.108477    109.58464    90.144954 
   77500    213.89155   -377.82886   -315.15163   -377.82886            0   -1778.3725    27.451991    23.006315    29.373863    18551.626   -1808.6978   -2377.8829   -1148.5369    390.94603   -328.85694    706.30329    27.451991    23.006591    31.197578    90.126697    109.68632    90.280449 
   78750    222.34217   -378.66058   -313.50704   -378.66058            0   -145.88882    27.405727      23.1041    29.294305    18548.704   -759.61014    592.09874   -270.15505   -186.60294    1178.6158    51.269563    27.405727    23.104276    31.126425    89.872251    109.75613    90.223624 
   80000    224.74419   -378.76427   -312.90686   -378.76427            0   -819.72337    27.550196    23.155099    29.284924    18681.659   -2069.8504   -708.93502    319.61535    701.45643    947.71873    181.22104    27.550196     23.15514    31.120194    89.708024    109.77239    89.891775 
   81250    219.27239   -379.45811   -315.20412   -379.45811            0    686.55164    27.535671    22.945146    29.274935    18496.196    1999.9585    748.85219   -689.15579    3237.5999    720.07892    1050.8349    27.535671    22.945421    31.080495    89.843079    109.62395    89.719542 
   82500    221.58804   -376.38217   -311.44961   -376.38217            0   -678.20679    27.634125    22.792035    29.521694    18593.883   -1294.4149   -1146.4553    406.24986   -603.18028   -1397.7639    458.76982    27.634125    22.792133    31.298256    90.184696    109.39695    89.831419 
   83750    224.07948    -377.3034   -311.64078    -377.3034            0   -654.48087     27.66459    22.767611    29.660899    18682.114    -1818.856   -1423.3856     1278.799    425.16189    305.39644     481.1943     27.66459    22.767623    31.410111    90.413155    109.20621    90.058631 
   85000    223.05715   -378.53323   -313.17018   -378.53323            0    831.45165    27.541157    22.853987    29.424239    18520.358    868.18406     1823.587   -197.41609   -669.73403   -219.12361   -825.25879    27.541157    22.854136     31.16045    90.094946    109.21576    90.206996 
   86250     218.9244   -378.10647   -313.95446   -378.10647            0   -2123.5575    27.468809    23.121921      29.2203    18558.737    -3136.138   -1047.5329   -2187.0015   -190.55395   -1146.2342   -654.14121    27.468809    23.121966    30.976998    89.485297    109.38199    90.113312 
   87500    219.47319   -377.51588   -313.20305   -377.51588            0   -468.73839    27.451049    23.270958    29.193634     18649.25   -69.896042   -1058.1931   -278.12606   -73.620938   -166.84957   -456.60761    27.451049    23.270976     30.97349    89.252011    109.50154    89.927354 
   88750    215.73862   -377.95309   -314.73461   -377.95309            0   -233.59671    27.382947    23.096723    29.222117    18481.714   -540.31841   -552.07957    391.60786   -250.16904    169.58637   -1978.5248    27.382947    23.096815    31.007531    89.607502    109.53246    89.838613 
   90000    215.28249   -381.16171   -318.07689   -381.16171            0    1.1063702    27.532266    22.900776     29.44384    18564.643    911.39236    724.73128   -1632.8045    1396.8625    1600.9858    1661.6369    27.532266    22.900801    31.253877    90.241523    109.59387    89.914518 
   91250    218.43601   -379.01951    -315.0106   -379.01951            0   -13.334037    27.601453    22.781727    29.456944    18522.784   -1277.9247    776.11311    461.80949   -767.79503   -86.233909    1636.9292    27.601453    22.781727     31.28566    90.474644    109.68073    89.992255 
   92500    222.78782   -378.01242   -312.72829   -378.01242            0     1110.552    27.679975     22.81928    29.434334    18591.817   -971.07588    2738.9309    1563.8012     221.0468   -1560.7164    1755.7086    27.679975    22.819282    31.271457     90.21722    109.73564    90.026523 
   93750     216.9255    -377.8838   -314.31753    -377.8838            0    1193.1895    27.598582    22.941629    29.344809    18579.854   -72.786519    1157.8566    2494.4983   -721.66526   -180.65442   -930.05321    27.598582     22.94163    31.160472    89.711252    109.65327    90.006089 
   95000    223.69864   -380.25783    -314.7068   -380.25783            0    1601.7838    27.394746     23.06485    29.279908    18500.677    3395.1053    -372.4549    1782.7012      1497.88   -1480.7703    106.79064    27.394746    23.064857    31.038527    89.473783     109.3723    90.042648 
   96250    219.50912   -377.09144   -312.76808   -377.09144            0    19.364367    27.428178    23.134283    29.384735    18645.533   -935.01551    504.80505    488.30356    230.21991     477.7925   -195.10672    27.428178    23.134323    31.102934    89.699874    109.13148    90.106817 
   97500    221.99919    -378.7481   -313.69507    -378.7481            0   -312.55125    27.475449    23.012021    29.324527     18540.89    -1624.191   -1065.3386    1751.8758   -496.69275   -1757.8588    679.43553    27.475449    23.012097    31.031057     90.29923    109.08664    90.147636 
   98750    222.78515   -381.50855   -316.22521   -381.50855            0   -1357.7119    27.679089    22.762734    29.406431    18527.573   -1155.4936    -1733.611    -1184.031    342.63935    53.107743    2439.1239    27.679089    22.762739    31.135884    90.670844    109.17415     89.96347 
  100000     230.1337   -378.90245   -311.46575   -378.90245            0    887.87271    27.832479    22.634937    29.632505    18668.076   -2005.8999     3445.616     1223.902    -465.4954    811.26456   -1080.5824    27.832479    22.636112    31.394779    90.434671    109.28686     89.41621 
  101250    218.37056   -377.78479   -313.79506   -377.78479            0   -1689.6191    27.602368    22.659651    29.621233    18526.897   -1300.3754   -2854.3568   -914.12516    -1193.893   -389.62286    803.82313    27.602368    22.661554    31.406194    89.853229    109.40558    89.257546 
  102500    218.01199   -377.61266   -313.72801   -377.61266            0   -2006.2145    27.472592     22.92932    29.511889    18590.361   -3036.8491   -549.91039   -2431.8841    -1872.751    841.46506   -987.00913    27.472592    22.929705    31.321745     89.65758      109.567    89.667964 
  103750    219.75252   -378.06945   -313.67476   -378.06945            0    334.89157    27.469227    23.077887    29.312684     18582.24   -1553.8542     1073.209    1485.3198    781.56599   -586.49618    2293.1145    27.469227    23.077962    31.137758    89.831186    109.71378    90.145793 
  105000    220.97148   -377.60981   -312.85793   -377.60981            0   -573.62353     27.50517    23.036522    29.237819    18525.768   -1763.1576     106.5065   -64.219482      12.2801    456.71605    431.80381     27.50517    23.036646    31.067176    89.957181    109.76015    90.188487 
  106250    225.83058   -376.59148   -310.41573   -376.59148            0   -996.92691    27.592461    22.974733    29.390726    18631.646    783.44957   -1263.2434   -2510.9869    540.60276    1605.9208    1802.1416    27.592461    22.974754    31.215167    89.994953    109.68602    90.077558 
  107500    222.87369   -376.61364   -311.30435   -376.61364            0    50.186729    27.532752    22.831646    29.435428    18503.641    354.44483    844.31328   -1048.1979    -413.4723    92.990515    209.44799    27.532752    22.831911    31.239442     89.92287    109.56594    89.723884 
  108750    226.23741   -377.93745   -311.64248   -377.93745            0    293.16762    27.597639    22.912887    29.500346    18654.295    -887.1522     391.4308    1375.2242   -17.547003    1341.7128   -2269.7719    27.597639    22.913539    31.294547    89.952764    109.49455    89.567825 
  110000    222.15437   -376.20318   -311.10468   -376.20318            0   -2039.1843    27.565066    22.973828    29.417441    18629.332   -503.98352   -1575.9735   -4037.5959     453.0286    315.15788   -153.04613    27.565066    22.974023    31.175206    90.053307    109.33192    89.763712 
  111250     226.8547   -379.74132   -313.26547   -379.74132            0    2215.4678    27.434507    22.986068    29.232365    18434.265     1077.263      1206.87    4362.2704   -1656.9885    1030.5167    177.80754    27.434507    22.986173    30.958322    90.129422     109.2212    90.172667 
  112500    219.72948   -378.53068   -314.14274   -378.53068            0   -710.76117    27.553747    23.188247    29.369412    18764.795    928.89299   -2442.2546   -618.92188     307.0566   -515.57182    105.65496    27.553747    23.188911    31.094475     90.08183    109.17322    90.433661 
  113750    219.32986   -380.23355   -315.96272   -380.23355            0   -294.37204    27.361255    23.060911    29.231906    18444.616    2127.5536   -1563.1958   -1447.4738   -478.94241   -563.72112   -1973.7198    27.361255    23.061074    30.968084    89.784545     109.2759    90.215713 
  115000    223.82795   -377.51951   -311.93059   -377.51951            0    1180.7439    27.522253    22.997692    29.348806    18576.276    1692.6334    856.19745    993.40098    33.256742   -378.81186   -2023.1445    27.522253    22.997836    31.155281    89.574088    109.60016    89.797055 
  116250    222.35284   -377.91523   -312.75857   -377.91523            0   -1691.1831    27.678727    22.868851    29.503551    18675.178   -2296.6748   -617.60708   -2159.2673     956.1425   -1304.0828    1098.9017    27.678727    22.869415    31.366103    89.778034    109.84072    89.597401 
  117500    216.95615   -379.53444   -315.95919   -379.53444            0    2622.8543    27.600576    22.744755    29.355928    18428.722    865.28904     4085.897     2917.377   -630.20633   -566.16172   -1110.2124    27.600576    22.744897    31.219101    90.128991    109.89463    89.797564 
  118750     221.4461   -380.26695   -315.37599   -380.26695            0   -1782.4687    27.634474    22.965201    29.399392    18657.773   -1325.8383   -2484.8631   -1536.7048    509.72506   -309.23103    1373.5659    27.634474     22.96527    31.230419    90.306266    109.71358    90.140536 
  120000    225.73398    -379.0403   -312.89286    -379.0403            0   -316.28503    27.460404    23.046962    29.297485    18541.759    684.56851    32.015086   -1665.4387    1117.1559   -534.99517    573.11874    27.460404     23.04706    31.071299    90.158175    109.45233    90.167053 
  121250    220.68373   -379.01496    -314.3474   -379.01496            0   -374.33187    27.403951    23.036686     29.31315     18505.28   -74.808047   -1823.3906    775.20304    394.70563    657.08297   -207.67717    27.403951    23.036686     31.05115    89.935353    109.26051    89.993682 
  122500    225.99125   -377.85349   -311.63066   -377.85349            0   -888.93456    27.552882    23.018869    29.486869    18701.639   -1557.5362   -1745.9313    636.66382    210.56042   -392.16497     208.7043    27.552882    23.019049    31.230218    89.724049    109.23116    89.773065 
  123750    219.62473   -377.21613   -312.85889   -377.21613            0    96.899336    27.555164    22.848331    29.464877    18550.778   -1143.7508    2135.7949   -701.34609   -679.67539    1577.8685    867.97246    27.555164     22.84864    31.237019    89.711274    109.38801    89.702265 
xargs: bash: terminated by signal 15
