LAMMPS data file via MDAnalysis

        2016  atoms
           0  bonds
           0  angles
           0  dihedrals
           0  impropers

           2  atom types
           0  bond types
           0  angle types
           0  dihedral types
           0  improper types

0.000000 18.134081 xlo xhi
0.000000 47.303848 ylo yhi
0.000000 19.407949 zlo zhi
-0.051563 -6.887183 0.027684 xy xz yz


Masses

1 15.999000
2 1.008000

Atoms

1 0 1 -1.179400 0.280770 8.488859 12.757598
2 0 2 0.589700 0.717589 7.639063 12.806696
3 0 2 0.589700 0.613862 8.976738 13.503769
4 0 1 -1.179400 6.182702 0.876705 2.469614
5 0 2 0.589700 6.432403 0.082462 1.997046
6 0 2 0.589700 6.764137 1.555090 2.110113
7 0 1 -1.179400 5.774071 7.040646 14.309313
8 0 2 0.589700 5.170185 6.556448 14.886066
9 0 2 0.589700 5.324382 7.866485 14.135872
10 0 1 -1.179400 6.319652 -0.655017 5.190879
11 0 2 0.589700 6.512038 -0.154938 4.392998
12 0 2 0.589700 5.367438 -0.774075 5.192562
13 0 1 -1.179400 -3.063682 19.784426 0.779457
14 0 2 0.589700 -2.891067 18.994570 1.291241
15 0 2 0.589700 14.546797 19.494083 0.093458
16 0 1 -1.179400 7.266797 4.798592 18.991732
17 0 2 0.589700 -9.983435 4.909733 19.049551
18 0 2 0.589700 6.979471 5.540192 18.461760
19 0 1 -1.179400 -7.296146 5.975667 13.993800
20 0 2 0.589700 -7.820508 5.807465 14.786310
21 0 2 0.589700 -6.387048 5.939380 14.282986
22 0 1 -1.179400 -5.072309 5.578642 11.220908
23 0 2 0.589700 -5.966574 5.454745 10.911249
24 0 2 0.589700 -4.944204 4.865237 11.845989
25 0 1 -1.179400 -1.220072 15.599215 9.807125
26 0 2 0.589700 -0.804262 14.750278 9.654738
27 0 2 0.589700 -1.160828 16.046463 8.960859
28 0 1 -1.179400 5.302426 13.242171 17.523726
29 0 2 0.589700 5.605300 13.691949 18.305979
30 0 2 0.589700 6.107900 12.982274 17.062208
31 0 1 -1.179400 -3.790309 -0.706901 17.667105
32 0 2 0.589700 -4.733291 -0.546643 17.610062
33 0 2 0.589700 -3.475394 -0.032944 18.262461
34 0 1 -1.179400 -4.880837 6.016254 15.141988
35 0 2 0.589700 -4.872631 5.103751 15.433847
36 0 2 0.589700 -3.970040 6.202388 14.888620
37 0 1 -1.179400 2.052331 9.644588 2.349826
38 0 2 0.589700 2.796508 9.132802 2.658579
39 0 2 0.589700 1.280182 9.188729 2.704889
40 0 1 -1.179400 -0.023222 15.905942 18.741264
41 0 2 0.589700 7.495163 15.418365 -0.012053
42 0 2 0.589700 -0.969593 15.775380 18.848635
43 0 1 -1.179400 -4.185385 3.536312 5.061195
44 0 2 0.589700 -4.745982 4.303545 4.952326
45 0 2 0.589700 -4.774741 2.789936 4.950818
46 0 1 -1.179400 1.158421 18.147512 17.763618
47 0 2 0.589700 0.717145 18.783998 18.330393
48 0 2 0.589700 0.677369 17.330505 17.915112
49 0 1 -1.179400 1.834733 9.179080 10.354026
50 0 2 0.589700 1.192787 9.068192 11.067225
51 0 2 0.589700 2.256548 10.018867 10.531489
52 0 1 -1.179400 0.224774 8.418160 4.140676
53 0 2 0.589700 -0.145696 7.538202 4.069655
54 0 2 0.589700 -0.498467 8.950940 4.482487
55 0 1 -1.179400 -4.876085 3.416877 13.011686
56 0 2 0.589700 -5.749069 3.060346 13.205483
57 0 2 0.589700 -4.460654 3.480862 13.864641
58 0 1 -1.179400 7.181257 12.939913 3.176787
59 0 2 0.589700 7.205046 13.714956 3.734379
60 0 2 0.589700 7.708985 12.291111 3.636039
61 0 1 -1.179400 -3.152213 12.901958 8.604306
62 0 2 0.589700 -3.683010 12.295588 9.133700
63 0 2 0.589700 -3.423585 13.770764 8.900595
64 0 1 -1.179400 4.849451 22.410826 2.285741
65 0 2 0.589700 5.755057 22.716621 2.357213
66 0 2 0.589700 4.615986 22.096167 3.163671
67 0 1 -1.179400 6.371784 18.354324 18.283672
68 0 2 0.589700 6.637841 17.646267 18.867853
69 0 2 0.589700 5.425140 18.433804 18.432360
70 0 1 -1.179400 3.140646 -0.859431 1.989855
71 0 2 0.589700 3.457597 -0.032236 1.617369
72 0 2 0.589700 3.712702 46.026783 2.336885
73 0 1 -1.179400 -1.749709 4.123822 17.099205
74 0 2 0.589700 -1.505151 3.199554 17.059050
75 0 2 0.589700 -2.233104 4.208884 17.928482
76 0 1 -1.179400 3.983558 4.089184 0.173099
77 0 2 0.589700 4.331425 4.840847 0.645725
78 0 2 0.589700 -4.005170 4.253825 19.247486
79 0 1 -1.179400 8.618023 1.610849 9.170165
80 0 2 0.589700 7.895576 1.225566 9.682302
81 0 2 0.589700 8.331244 2.504822 8.986623
82 0 1 -1.179400 -1.774285 12.020266 2.300053
83 0 2 0.589700 -1.007261 11.816768 2.825438
84 0 2 0.589700 -2.523015 11.875181 2.893395
85 0 1 -1.179400 12.522547 -0.248070 5.361215
86 0 2 0.589700 12.456469 0.360913 4.625140
87 0 2 0.589700 11.896205 -0.944094 5.166841
88 0 1 -1.179400 -7.908610 7.467154 17.754141
89 0 2 0.589700 -8.544604 7.916510 17.205700
90 0 2 0.589700 -7.070663 7.890956 17.541248
91 0 1 -1.179400 2.330353 17.299227 10.110965
92 0 2 0.589700 2.244871 17.857704 9.338272
93 0 2 0.589700 1.645262 17.605793 10.715807
94 0 1 -1.179400 -5.726563 3.971761 18.389399
95 0 2 0.589700 -6.582146 4.201563 18.768538
96 0 2 0.589700 -5.925468 3.623521 17.525148
97 0 1 -1.179400 3.477539 -0.431205 5.481632
98 0 2 0.589700 3.005045 -0.030201 6.217028
99 0 2 0.589700 2.674660 46.187847 5.175169
100 0 1 -1.179400 0.319844 18.678688 11.400558
101 0 2 0.589700 -0.596761 18.422693 11.540690
102 0 2 0.589700 0.365964 19.576904 11.724004
103 0 1 -1.179400 1.812108 5.209258 5.941605
104 0 2 0.589700 2.579520 4.801500 5.527536
105 0 2 0.589700 1.709792 4.754823 6.780663
106 0 1 -1.179400 3.516704 6.303378 15.701906
107 0 2 0.589700 3.785451 5.601751 16.292488
108 0 2 0.589700 3.634281 7.105485 16.205982
109 0 1 -1.179400 -1.615003 4.143550 2.617226
110 0 2 0.589700 -1.226055 4.701155 3.283321
111 0 2 0.589700 -1.843461 3.334222 3.081726
112 0 1 -1.179400 5.175682 5.261054 7.835220
113 0 2 0.589700 4.461012 5.891742 7.936901
114 0 2 0.589700 5.008675 4.832296 7.000538
115 0 1 -1.179400 4.253300 3.108602 14.037848
116 0 2 0.589700 3.709342 2.559224 13.482478
117 0 2 0.589700 5.082968 3.198454 13.551758
118 0 1 -1.179400 9.539133 3.993390 6.374128
119 0 2 0.589700 9.034330 4.042090 7.194034
120 0 2 0.589700 10.227321 3.352895 6.547174
121 0 1 -1.179400 -7.265309 2.957849 16.353458
122 0 2 0.589700 -7.850256 2.286306 16.720320
123 0 2 0.589700 -7.003138 2.619741 15.494831
124 0 1 -1.179400 -2.022264 2.419493 6.656337
125 0 2 0.589700 -1.377680 2.427965 5.937384
126 0 2 0.589700 -2.760774 2.926749 6.327775
127 0 1 -1.179400 0.517724 5.600749 16.964796
128 0 2 0.589700 1.260514 5.058924 16.686390
129 0 2 0.589700 -0.250697 5.041124 16.848978
130 0 1 -1.179400 -0.607106 1.543343 17.024298
131 0 2 0.589700 -0.353234 0.902188 17.685711
132 0 2 0.589700 -0.118505 1.285634 16.235754
133 0 1 -1.179400 7.071182 19.443228 15.985012
134 0 2 0.589700 6.796045 18.892380 16.724436
135 0 2 0.589700 8.011606 19.276587 15.882038
136 0 1 -1.179400 -5.276656 10.122475 6.571289
137 0 2 0.589700 -4.687917 9.478384 6.170662
138 0 2 0.589700 12.312045 10.349646 5.879777
139 0 1 -1.179400 -0.501142 5.651668 4.547840
140 0 2 0.589700 0.382950 5.522209 4.882023
141 0 2 0.589700 -1.064098 5.682412 5.330757
142 0 1 -1.179400 -5.683588 0.069820 9.795217
143 0 2 0.589700 -6.315326 0.696858 10.155641
144 0 2 0.589700 -6.159894 -0.381034 9.106540
145 0 1 -1.179400 -3.481637 4.718571 8.794028
146 0 2 0.589700 -3.756980 5.284186 9.517172
147 0 2 0.589700 -2.768581 4.193746 9.149512
148 0 1 -1.179400 -1.050028 15.540888 4.256713
149 0 2 0.589700 -1.683022 15.225149 3.621630
150 0 2 0.589700 -1.248590 15.040297 5.052867
151 0 1 -1.179400 8.631370 -0.363613 7.386042
152 0 2 0.589700 8.888494 0.431804 7.845993
153 0 2 0.589700 8.786295 -0.159829 6.461003
154 0 1 -1.179400 12.410568 46.134102 2.093466
155 0 2 0.589700 12.696622 -0.473639 1.437184
156 0 2 0.589700 12.084150 45.378365 1.612067
157 0 1 -1.179400 4.995588 -0.856381 17.467293
158 0 2 0.589700 5.404231 -0.206716 16.885180
159 0 2 0.589700 5.497032 45.852459 17.689621
160 0 1 -1.179400 1.208158 1.967622 0.682016
161 0 2 0.589700 1.133192 1.161133 0.176288
162 0 2 0.589700 1.212673 2.666165 0.025448
163 0 1 -1.179400 -1.396903 8.728483 10.645311
164 0 2 0.589700 -0.922185 8.669826 11.466976
165 0 2 0.589700 -1.708864 9.632444 10.612667
166 0 1 -1.179400 -3.523904 14.953059 3.056749
167 0 2 0.589700 -3.764417 14.461692 2.277124
168 0 2 0.589700 -3.764080 14.376139 3.787812
169 0 1 -1.179400 13.987330 5.401155 2.285592
170 0 2 0.589700 14.177074 5.303859 1.350364
171 0 2 0.589700 -3.627048 4.778315 2.708166
172 0 1 -1.179400 -1.526171 2.803738 9.391272
173 0 2 0.589700 -1.702702 2.452714 8.523005
174 0 2 0.589700 -2.222560 2.439137 9.952665
175 0 1 -1.179400 5.101383 14.012480 8.597836
176 0 2 0.589700 4.667078 13.168672 8.474658
177 0 2 0.589700 5.887168 13.803275 9.092927
178 0 1 -1.179400 -0.721651 16.381336 14.830299
179 0 2 0.589700 -0.289486 16.146246 14.003359
180 0 2 0.589700 -0.542390 17.316076 14.929043
181 0 1 -1.179400 0.454278 1.286266 10.681328
182 0 2 0.589700 1.322797 1.689658 10.601580
183 0 2 0.589700 -0.144132 1.943707 10.333553
184 0 1 -1.179400 -2.590750 -0.129328 5.445013
185 0 2 0.589700 -3.418446 -0.429817 5.840138
186 0 2 0.589700 -2.366527 0.656914 5.936748
187 0 1 -1.179400 12.376906 7.903713 1.132223
188 0 2 0.589700 12.110769 7.103566 0.685665
189 0 2 0.589700 13.259907 8.086401 0.789544
190 0 1 -1.179400 -0.108339 -0.146882 19.102423
191 0 2 0.589700 0.776706 -0.514541 19.109678
192 0 2 0.589700 -0.684811 -0.906288 19.012661
193 0 1 -1.179400 2.317270 12.647015 15.247663
194 0 2 0.589700 1.798610 13.409421 15.509581
195 0 2 0.589700 3.186204 13.002204 15.032889
196 0 1 -1.179400 0.297135 21.941931 16.739508
197 0 2 0.589700 -0.584074 22.028925 16.385361
198 0 2 0.589700 0.182615 21.369341 17.501560
199 0 1 -1.179400 12.539672 6.114240 5.143701
200 0 2 0.589700 12.405544 6.011032 6.087752
201 0 2 0.589700 -5.012555 6.816950 5.055403
202 0 1 -1.179400 11.034001 19.028431 6.363617
203 0 2 0.589700 11.935905 19.197708 6.068125
204 0 2 0.589700 11.082535 18.201891 6.845673
205 0 1 -1.179400 8.555656 15.034126 4.471917
206 0 2 0.589700 8.522159 15.985981 4.563266
207 0 2 0.589700 9.248962 14.882187 3.817977
208 0 1 -1.179400 -5.498820 20.712713 18.330832
209 0 2 0.589700 -6.068918 19.953323 18.210020
210 0 2 0.589700 -5.493994 20.845873 19.277451
211 0 1 -1.179400 -0.042778 2.246579 4.731134
212 0 2 0.589700 0.375501 2.856639 4.113594
213 0 2 0.589700 -0.149603 1.439277 4.232812
214 0 1 -1.179400 4.898836 15.490286 3.115525
215 0 2 0.589700 4.201036 16.095320 3.377519
216 0 2 0.589700 5.640593 16.055882 2.877310
217 0 1 -1.179400 11.146642 8.444518 3.600089
218 0 2 0.589700 11.083122 7.564171 3.974746
219 0 2 0.589700 11.588799 8.320689 2.753688
220 0 1 -1.179400 -2.315014 9.922336 8.087455
221 0 2 0.589700 -2.565761 10.841242 7.996574
222 0 2 0.589700 -1.401367 9.951104 8.363647
223 0 1 -1.179400 6.519052 9.122069 1.665140
224 0 2 0.589700 5.944915 8.935674 0.931429
225 0 2 0.589700 6.164129 9.924976 2.048613
226 0 1 -1.179400 -4.023435 15.411135 8.223024
227 0 2 0.589700 -3.695481 15.860244 7.436882
228 0 2 0.589700 -4.170960 16.111172 8.858056
229 0 1 -1.179400 -8.532822 18.655901 15.202056
230 0 2 0.589700 -8.634940 17.736982 14.958834
231 0 2 0.589700 -7.989663 19.034220 14.499382
232 0 1 -1.179400 3.196577 11.911886 8.264934
233 0 2 0.589700 3.780945 11.220491 7.946986
234 0 2 0.589700 3.018962 11.683871 9.180661
235 0 1 -1.179400 8.560723 0.871284 12.867778
236 0 2 0.589700 8.871035 0.427200 12.075875
237 0 2 0.589700 8.836992 0.303652 13.584253
238 0 1 -1.179400 -3.727861 8.008534 5.728177
239 0 2 0.589700 -3.466248 7.927892 4.807563
240 0 2 0.589700 -3.132532 7.425097 6.191413
241 0 1 -1.179400 -1.870161 10.039961 4.856956
242 0 2 0.589700 -2.306590 9.645697 5.621123
243 0 2 0.589700 -2.572149 10.488333 4.394041
244 0 1 -1.179400 5.566462 11.540974 12.029080
245 0 2 0.589700 6.301859 10.943968 12.160918
246 0 2 0.589700 5.332301 11.845567 12.907809
247 0 1 -1.179400 3.895006 1.756298 3.589142
248 0 2 0.589700 4.621319 1.227195 3.248054
249 0 2 0.589700 3.420359 1.171472 4.191003
250 0 1 -1.179400 9.251792 17.797394 4.540684
251 0 2 0.589700 8.564101 18.462973 4.580162
252 0 2 0.589700 9.909225 18.099651 5.157363
253 0 1 -1.179400 9.516327 17.241705 1.645359
254 0 2 0.589700 10.090728 17.555126 2.334644
255 0 2 0.589700 9.908013 17.588697 0.836064
256 0 1 -1.179400 6.126487 1.702395 6.621155
257 0 2 0.589700 6.680171 2.194580 6.002652
258 0 2 0.589700 6.147082 0.803935 6.295054
259 0 1 -1.179400 2.580881 17.515793 13.609331
260 0 2 0.589700 2.924942 16.801941 13.070213
261 0 2 0.589700 1.657520 17.581987 13.372766
262 0 1 -1.179400 10.548392 12.020555 8.043572
263 0 2 0.589700 11.307015 12.357240 7.549697
264 0 2 0.589700 9.996597 12.788564 8.197329
265 0 1 -1.179400 1.947885 3.638685 15.354283
266 0 2 0.589700 2.794865 3.461023 14.928932
267 0 2 0.589700 1.950831 3.104922 16.150166
268 0 1 -1.179400 8.349543 13.050136 13.506451
269 0 2 0.589700 9.299322 12.917249 13.512959
270 0 2 0.589700 8.237499 13.903253 13.086447
271 0 1 -1.179400 10.441094 16.321692 7.459652
272 0 2 0.589700 9.978847 15.483022 7.430331
273 0 2 0.589700 10.287771 16.637318 8.350838
274 0 1 -1.179400 7.536129 8.650280 19.128216
275 0 2 0.589700 -2.618924 8.948413 -0.033356
276 0 2 0.589700 7.583674 8.101492 18.347296
277 0 1 -1.179400 -4.718987 11.416518 10.481556
278 0 2 0.589700 -4.813445 10.983524 11.332594
279 0 2 0.589700 -5.428093 12.059771 10.470161
280 0 1 -1.179400 10.793879 5.023526 10.032809
281 0 2 0.589700 11.082331 4.138555 9.809576
282 0 2 0.589700 10.191862 4.902289 10.778074
283 0 1 -1.179400 -7.520108 18.867617 18.074305
284 0 2 0.589700 -8.100792 18.867231 17.322210
285 0 2 0.589700 -8.092830 18.645666 18.819380
286 0 1 -1.179400 8.557794 13.985240 7.164193
287 0 2 0.589700 8.112480 14.589126 7.763051
288 0 2 0.589700 8.504604 14.408439 6.307245
289 0 1 -1.179400 0.383842 11.492919 3.801350
290 0 2 0.589700 0.987064 10.903392 3.341029
291 0 2 0.589700 -0.159457 10.915488 4.350557
292 0 1 -1.179400 -4.925283 21.978832 7.092856
293 0 2 0.589700 -4.932538 21.377277 6.351226
294 0 2 0.589700 -5.832194 21.983007 7.419899
295 0 1 -1.179400 8.480037 20.486309 2.249822
296 0 2 0.589700 8.013480 20.056227 2.976309
297 0 2 0.589700 9.407985 20.330702 2.421357
298 0 1 -1.179400 4.098298 8.280635 11.319121
299 0 2 0.589700 3.274260 8.537675 10.915027
300 0 2 0.589700 4.005039 7.339905 11.475194
301 0 1 -1.179400 12.599088 15.711341 5.490748
302 0 2 0.589700 11.943023 15.931958 6.162404
303 0 2 0.589700 -4.841571 16.253635 5.697414
304 0 1 -1.179400 9.757455 8.519098 10.263434
305 0 2 0.589700 10.597678 8.708291 9.826990
306 0 2 0.589700 9.153579 9.167361 9.908189
307 0 1 -1.179400 2.044163 6.319590 2.111558
308 0 2 0.589700 2.569006 6.703235 2.805179
309 0 2 0.589700 1.866287 5.425083 2.409285
310 0 1 -1.179400 -0.251995 18.992559 15.536970
311 0 2 0.589700 0.281402 18.804779 16.301462
312 0 2 0.589700 0.313687 19.533009 14.972344
313 0 1 -1.179400 -4.678000 19.738718 5.248283
314 0 2 0.589700 -3.794978 19.629843 5.592108
315 0 2 0.589700 -4.538499 20.122869 4.379516
316 0 1 -1.179400 11.065615 5.687743 0.045416
317 0 2 0.589700 11.475559 5.298347 0.812189
318 0 2 0.589700 4.071987 4.919449 18.725410
319 0 1 -1.179400 -3.281439 14.770201 11.514303
320 0 2 0.589700 -3.116391 15.140702 12.376852
321 0 2 0.589700 -2.599504 15.151136 10.946151
322 0 1 -1.179400 -2.709028 -0.295728 13.083886
323 0 2 0.589700 -2.802125 0.132089 13.934318
324 0 2 0.589700 -1.778746 -0.522423 13.015944
325 0 1 -1.179400 7.536950 16.228310 8.476434
326 0 2 0.589700 8.317224 16.691772 8.773148
327 0 2 0.589700 7.471212 16.464724 7.552105
328 0 1 -1.179400 4.007076 16.200891 7.084787
329 0 2 0.589700 4.718396 16.824167 6.910369
330 0 2 0.589700 4.377575 15.570158 7.697885
331 0 1 -1.179400 -3.598283 12.754124 4.966041
332 0 2 0.589700 -2.899466 12.828554 5.605868
333 0 2 0.589700 -4.410031 12.817946 5.484769
334 0 1 -1.179400 11.454513 21.470472 0.193335
335 0 2 0.589700 11.479586 20.868782 0.938583
336 0 2 0.589700 10.568623 21.836222 0.224355
337 0 1 -1.179400 -0.577679 18.135525 4.490565
338 0 2 0.589700 0.264348 18.291353 4.908376
339 0 2 0.589700 -0.630296 17.183926 4.405261
340 0 1 -1.179400 7.916966 21.488335 13.848924
341 0 2 0.589700 6.962648 21.527189 13.955378
342 0 2 0.589700 8.085684 20.625389 13.471965
343 0 1 -1.179400 -6.114966 14.780675 13.486735
344 0 2 0.589700 -5.820855 15.666821 13.264896
345 0 2 0.589700 -5.314119 14.319013 13.727398
346 0 1 -1.179400 0.574556 14.558181 16.391411
347 0 2 0.589700 0.226450 14.734799 17.269941
348 0 2 0.589700 0.069149 15.128961 15.818930
349 0 1 -1.179400 4.367332 1.251401 -0.017452
350 0 2 0.589700 5.237479 1.191040 0.367118
351 0 2 0.589700 4.186591 2.190353 -0.055699
352 0 1 -1.179400 -6.192557 17.567623 12.098500
353 0 2 0.589700 -6.244277 18.404186 12.557999
354 0 2 0.589700 -5.490612 17.691528 11.446174
355 0 1 -1.179400 -8.854213 5.303762 16.267056
356 0 2 0.589700 -8.320718 4.521368 16.400223
357 0 2 0.589700 -8.563816 5.914606 16.937702
358 0 1 -1.179400 6.552554 6.934296 17.092747
359 0 2 0.589700 6.858607 6.913319 16.181593
360 0 2 0.589700 5.828992 7.561649 17.097507
361 0 1 -1.179400 1.315807 21.962946 5.070181
362 0 2 0.589700 1.068276 21.999338 5.997437
363 0 2 0.589700 0.564336 22.334679 4.617500
364 0 1 -1.179400 -3.117591 16.347305 13.739813
365 0 2 0.589700 -2.278341 16.270653 14.183628
366 0 2 0.589700 -3.717269 16.707083 14.402025
367 0 1 -1.179400 8.111648 7.884844 3.526214
368 0 2 0.589700 8.572133 8.697561 3.730137
369 0 2 0.589700 7.522724 8.122652 2.818406
370 0 1 -1.179400 -1.048127 9.951104 0.729781
371 0 2 0.589700 -1.335312 10.604101 1.369551
372 0 2 0.589700 -0.343917 10.383730 0.230676
373 0 1 -1.179400 -2.848428 16.509703 18.787567
374 0 2 0.589700 -3.031287 16.039110 17.979345
375 0 2 0.589700 -3.694650 16.546211 19.250439
376 0 1 -1.179400 -0.964423 16.902929 7.372722
377 0 2 0.589700 -0.116329 16.813374 6.921271
378 0 2 0.589700 -0.898542 17.729038 7.847431
379 0 1 -1.179400 8.553730 15.835857 12.305145
380 0 2 0.589700 9.046047 15.341378 11.644032
381 0 2 0.589700 9.111835 15.822427 13.074120
382 0 1 -1.179400 -5.701844 13.962119 10.337105
383 0 2 0.589700 -5.563282 14.536718 9.580150
384 0 2 0.589700 -5.017220 14.214509 10.946547
385 0 1 -1.179400 -4.376937 20.379587 9.223604
386 0 2 0.589700 -3.500798 20.618490 9.518266
387 0 2 0.589700 -4.517073 20.931116 8.454844
388 0 1 -1.179400 6.805030 4.246374 15.528253
389 0 2 0.589700 7.065691 3.796834 14.722489
390 0 2 0.589700 7.620150 4.621784 15.852909
391 0 1 -1.179400 -1.865753 22.351805 14.892790
392 0 2 0.589700 -1.254060 22.993711 14.515789
393 0 2 0.589700 -2.578127 22.877127 15.268022
394 0 1 -1.179400 0.361443 10.482000 8.599568
395 0 2 0.589700 0.827663 10.037626 9.301476
396 0 2 0.589700 1.026420 10.614173 7.911304
397 0 1 -1.179400 -8.738285 0.788237 17.424314
398 0 2 0.589700 -8.698897 0.614789 18.364151
399 0 2 0.589700 -9.577489 1.233162 17.309418
400 0 1 -1.179400 4.110102 21.723597 7.226427
401 0 2 0.589700 3.214090 21.989893 7.453187
402 0 2 0.589700 4.664002 22.407129 7.595541
403 0 1 -1.179400 3.765306 18.098469 18.870571
404 0 2 0.589700 2.889050 18.083073 18.495213
405 0 2 0.589700 4.052373 17.185888 18.848860
406 0 1 -1.179400 6.224116 8.550221 9.416469
407 0 2 0.589700 5.690985 8.406785 10.208039
408 0 2 0.589700 6.838771 7.816392 9.398600
409 0 1 -1.179400 3.892302 15.162189 12.294147
410 0 2 0.589700 4.678753 15.509313 11.854755
411 0 2 0.589700 3.297551 14.953899 11.583042
412 0 1 -1.179400 -1.825611 20.123903 5.778159
413 0 2 0.589700 -1.738867 20.984926 5.364476
414 0 2 0.589700 -1.538050 19.508259 5.102293
415 0 1 -1.179400 9.540138 17.567879 9.949114
416 0 2 0.589700 9.898345 16.936703 10.569172
417 0 2 0.589700 10.129311 18.322205 9.994836
418 0 1 -1.179400 6.319192 17.225965 6.212240
419 0 2 0.589700 6.306529 17.626987 5.342561
420 0 2 0.589700 6.260207 17.964403 6.816061
421 0 1 -1.179400 10.926511 2.228326 10.575083
422 0 2 0.589700 -7.318595 2.097023 11.522717
423 0 2 0.589700 10.021213 2.121601 10.290917
424 0 1 -1.179400 3.107937 19.252186 2.261667
425 0 2 0.589700 3.793392 19.462049 1.613762
426 0 2 0.589700 2.405769 19.876017 2.084188
427 0 1 -1.179400 8.077345 22.395502 4.749081
428 0 2 0.589700 7.290722 22.931887 4.865790
429 0 2 0.589700 8.041951 21.773518 5.478178
430 0 1 -1.179400 -1.620681 12.701006 18.436113
431 0 2 0.589700 -2.130810 13.421726 18.072531
432 0 2 0.589700 -2.230218 12.255142 19.037672
433 0 1 -1.179400 2.812928 21.228352 9.970570
434 0 2 0.589700 3.768390 21.313442 9.983963
435 0 2 0.589700 2.509640 22.059090 9.607121
436 0 1 -1.179400 -2.220348 6.338575 14.084360
437 0 2 0.589700 -2.737828 6.894516 13.508313
438 0 2 0.589700 -1.893022 6.934936 14.750654
439 0 1 -1.179400 -3.935602 10.211509 19.208067
440 0 2 0.589700 -3.301386 9.529060 18.979948
441 0 2 0.589700 2.982350 10.178852 0.757781
442 0 1 -1.179400 -1.998115 21.594765 9.834073
443 0 2 0.589700 -2.173157 22.282684 9.192922
444 0 2 0.589700 -1.448717 22.017977 10.484660
445 0 1 -1.179400 7.548592 12.895314 10.243648
446 0 2 0.589700 7.751455 12.061908 9.819427
447 0 2 0.589700 6.833437 12.688843 10.859830
448 0 1 -1.179400 7.681045 20.624357 6.983767
449 0 2 0.589700 6.814145 20.304052 7.257212
450 0 2 0.589700 8.216535 20.536791 7.764200
451 0 1 -1.179400 -6.398239 19.665564 13.802994
452 0 2 0.589700 -6.834155 20.293793 13.232416
453 0 2 0.589700 -5.809345 20.198698 14.327792
454 0 1 -1.179400 4.359989 5.697265 12.223279
455 0 2 0.589700 4.892386 6.194204 12.835418
456 0 2 0.589700 3.473002 5.722487 12.601422
457 0 1 -1.179400 -2.851698 1.383393 2.876128
458 0 2 0.589700 -2.520240 0.877361 2.131422
459 0 2 0.589700 -2.710830 0.817589 3.634363
460 0 1 -1.179400 6.740730 12.187863 6.498827
461 0 2 0.589700 6.081761 12.643563 5.983419
462 0 2 0.589700 7.281956 12.887419 6.856951
463 0 1 -1.179400 -2.465325 18.247353 11.717635
464 0 2 0.589700 -2.574160 19.152523 12.006892
465 0 2 0.589700 -2.784624 17.719389 12.456753
466 0 1 -1.179400 -0.770058 7.151346 1.488173
467 0 2 0.589700 -0.614981 8.080695 1.311835
468 0 2 0.589700 0.035696 6.849166 1.897851
469 0 1 -1.179400 1.491104 15.919626 6.226657
470 0 2 0.589700 2.316862 16.046175 6.683740
471 0 2 0.589700 1.494967 14.995405 5.981270
472 0 1 -1.179400 1.263731 12.553635 12.609811
473 0 2 0.589700 0.319134 12.493014 12.782882
474 0 2 0.589700 1.660871 12.423196 13.464691
475 0 1 -1.179400 -6.399789 16.148491 16.995764
476 0 2 0.589700 -6.209998 15.356189 17.497314
477 0 2 0.589700 -6.823744 16.733921 17.627468
478 0 1 -1.179400 3.981388 20.359337 16.215517
479 0 2 0.589700 3.829748 20.622194 17.124140
480 0 2 0.589700 4.055751 19.405851 16.253567
481 0 1 -1.179400 -1.421310 22.096453 1.231359
482 0 2 0.589700 -1.900551 21.288578 1.051475
483 0 2 0.589700 -1.764932 22.731886 0.607208
484 0 1 -1.179400 10.720277 22.060020 8.115501
485 0 2 0.589700 10.940167 22.690233 8.795725
486 0 2 0.589700 10.567108 21.238607 8.588186
487 0 1 -1.179400 -1.313451 13.593353 6.457671
488 0 2 0.589700 -0.402337 13.351220 6.619054
489 0 2 0.589700 -1.764029 13.459324 7.299375
490 0 1 -1.179400 0.064668 20.189018 19.037773
491 0 2 0.589700 -0.844684 19.903248 19.165817
492 0 2 0.589700 7.496180 20.512060 0.544275
493 0 1 -1.179400 -4.151851 7.828983 8.916403
494 0 2 0.589700 -3.436667 8.408459 8.632852
495 0 2 0.589700 -4.889928 8.416342 9.092058
496 0 1 -1.179400 6.824932 19.264030 4.040248
497 0 2 0.589700 6.506325 18.729074 3.320138
498 0 2 0.589700 6.095176 19.850512 4.251643
499 0 1 -1.179400 3.419001 15.316795 17.036615
500 0 2 0.589700 3.942947 14.607548 17.402864
501 0 2 0.589700 2.579642 14.907072 16.831577
502 0 1 -1.179400 10.781271 21.716246 4.866797
503 0 2 0.589700 9.921894 22.135912 4.816817
504 0 2 0.589700 10.639197 20.968151 5.451813
505 0 1 -1.179400 3.026715 -0.697237 15.344944
506 0 2 0.589700 3.148364 -0.198135 14.533886
507 0 2 0.589700 3.554673 45.999195 15.354537
508 0 1 -1.179400 0.353880 -0.709460 15.130953
509 0 2 0.589700 1.307461 -0.691663 15.220832
510 0 2 0.589700 0.203782 -0.365486 14.252233
511 0 1 -1.179400 -5.387815 13.098051 7.021076
512 0 2 0.589700 -4.592746 12.953905 7.524146
513 0 2 0.589700 -5.374526 14.033664 6.815876
514 0 1 -1.179400 -3.399712 17.134520 6.050258
515 0 2 0.589700 -2.506600 17.171618 6.383627
516 0 2 0.589700 -3.292442 17.244957 5.104019
517 0 1 -1.179400 -4.065320 3.477498 15.846726
518 0 2 0.589700 -3.794986 2.564206 15.753824
519 0 2 0.589700 -3.289187 3.924082 16.176670
520 0 1 -1.179400 11.921824 17.437895 3.050377
521 0 2 0.589700 11.747109 16.763157 3.711700
522 0 2 0.589700 12.106125 16.950106 2.247193
523 0 1 -1.179400 -4.689213 10.760917 15.428559
524 0 2 0.589700 -4.963519 9.967079 15.895933
525 0 2 0.589700 -4.925575 10.601072 14.519729
526 0 1 -1.179400 6.869760 6.978497 6.111336
527 0 2 0.589700 6.546537 6.793394 6.998765
528 0 2 0.589700 7.824106 6.912858 6.169574
529 0 1 -1.179400 9.482185 5.625402 3.966794
530 0 2 0.589700 9.650689 5.889016 4.867225
531 0 2 0.589700 8.935835 6.325762 3.616533
532 0 1 -1.179400 12.627575 1.645471 3.525385
533 0 2 0.589700 13.482596 1.743934 3.088007
534 0 2 0.589700 12.167249 2.461420 3.334506
535 0 1 -1.179400 -4.888190 6.919890 18.700319
536 0 2 0.589700 -5.176529 6.075988 18.358835
537 0 2 0.589700 1.916168 7.053450 0.231307
538 0 1 -1.179400 11.745574 6.484757 7.949224
539 0 2 0.589700 11.489713 5.934081 8.695345
540 0 2 0.589700 -5.618421 6.872992 8.198909
541 0 1 -1.179400 6.185814 10.083945 15.929883
542 0 2 0.589700 5.514784 10.250996 16.602827
543 0 2 0.589700 5.691203 9.828975 15.159490
544 0 1 -1.179400 4.958918 9.996695 7.239075
545 0 2 0.589700 5.182601 9.357450 7.913546
546 0 2 0.589700 5.635803 10.672159 7.300908
547 0 1 -1.179400 -7.043077 1.867465 13.666063
548 0 2 0.589700 -7.975151 1.659137 13.776825
549 0 2 0.589700 -6.588673 1.105261 14.019776
550 0 1 -1.179400 8.719174 9.341846 0.235862
551 0 2 0.589700 8.037640 9.303620 0.919314
552 0 2 0.589700 9.510241 9.611476 0.692472
553 0 1 -1.179400 -2.083023 6.104825 6.843410
554 0 2 0.589700 -1.359241 6.402058 7.384616
555 0 2 0.589700 -2.578440 5.498372 7.405765
556 0 1 -1.179400 4.743470 18.387136 10.349771
557 0 2 0.589700 3.818279 18.154268 10.470355
558 0 2 0.589700 5.220686 17.599665 10.605754
559 0 1 -1.179400 4.368415 9.593572 13.820148
560 0 2 0.589700 4.103443 9.296003 12.955473
561 0 2 0.589700 3.542859 9.712029 14.305606
562 0 1 -1.179400 -1.549321 8.123089 16.073597
563 0 2 0.589700 -0.689911 8.175666 16.481897
564 0 2 0.589700 -1.868693 9.025091 16.069159
565 0 1 -1.179400 0.954068 8.419676 17.017948
566 0 2 0.589700 1.199585 8.550503 17.928932
567 0 2 0.589700 0.971437 7.470281 16.901016
568 0 1 -1.179400 -4.148788 17.597878 9.670320
569 0 2 0.589700 -4.258893 18.417492 9.187730
570 0 2 0.589700 -3.369115 17.740442 10.196616
571 0 1 -1.179400 -6.417871 -0.357445 18.549631
572 0 2 0.589700 -7.074027 -0.664847 17.934105
573 0 2 0.589700 -6.136938 -1.148288 19.007481
574 0 1 -1.179400 0.089692 -0.931693 12.369518
575 0 2 0.589700 0.577145 45.718658 12.377123
576 0 2 0.589700 0.512267 -0.139188 12.025888
577 0 1 -1.179400 -3.764489 7.810947 12.203224
578 0 2 0.589700 -4.359288 7.118660 11.921710
579 0 2 0.589700 -3.130137 7.904078 11.480879
580 0 1 -1.179400 -9.748770 15.375717 17.402771
581 0 2 0.589700 7.832745 14.914225 16.846701
582 0 2 0.589700 -9.188766 14.686137 17.752691
583 0 1 -1.179400 2.765790 0.860150 13.112895
584 0 2 0.589700 1.949282 1.352813 13.217084
585 0 2 0.589700 2.868062 0.741131 12.168121
586 0 1 -1.179400 -3.293275 1.884824 11.482291
587 0 2 0.589700 -3.841971 2.375928 12.100830
588 0 2 0.589700 -3.111369 1.060243 11.932387
589 0 1 -1.179400 -5.875001 -0.298883 14.884762
590 0 2 0.589700 -5.345395 -1.096101 14.879360
591 0 2 0.589700 -6.761327 -0.597817 15.114713
592 0 1 -1.179400 -8.854869 -0.666808 15.077372
593 0 2 0.589700 8.684262 45.806297 15.250607
594 0 2 0.589700 -8.783124 -0.259020 15.937159
595 0 1 -1.179400 -6.111079 9.589940 9.185538
596 0 2 0.589700 -5.666080 10.172426 9.792843
597 0 2 0.589700 -5.697684 9.776092 8.335109
598 0 1 -1.179400 7.162927 2.151938 17.754774
599 0 2 0.589700 6.756248 1.742391 18.526833
600 0 2 0.589700 6.978182 3.085408 17.855345
601 0 1 -1.179400 4.158536 8.215564 17.428995
602 0 2 0.589700 3.904912 9.113267 17.642860
603 0 2 0.589700 3.874088 7.700068 18.190248
604 0 1 -1.179400 1.760821 3.662226 3.010986
605 0 2 0.589700 2.641731 3.401990 3.272252
606 0 2 0.589700 1.565954 3.099851 2.266724
607 0 1 -1.179400 3.972369 7.929625 3.092001
608 0 2 0.589700 4.699364 8.383493 3.508940
609 0 2 0.589700 4.396210 7.323386 2.480391
610 0 1 -1.179400 3.389616 7.212442 7.093979
611 0 2 0.589700 3.015054 8.092786 7.077291
612 0 2 0.589700 2.799206 6.688848 6.561509
613 0 1 -1.179400 4.564382 4.025290 17.104221
614 0 2 0.589700 4.266760 3.114977 17.094009
615 0 2 0.589700 5.300289 4.051958 16.478941
616 0 1 -1.179400 13.459636 11.376765 0.574252
617 0 2 0.589700 12.573686 11.176364 0.898342
618 0 2 0.589700 13.737219 10.585235 0.112375
619 0 1 -1.179400 11.746712 11.036967 4.161894
620 0 2 0.589700 12.669870 11.108037 3.895173
621 0 2 0.589700 11.528387 10.114830 4.030610
622 0 1 -1.179400 2.937803 1.671881 16.958132
623 0 2 0.589700 3.036520 0.840019 16.497133
624 0 2 0.589700 2.659149 1.424025 17.844822
625 0 1 -1.179400 -0.318517 -0.294122 8.298230
626 0 2 0.589700 -0.056931 0.114944 9.117229
627 0 2 0.589700 -1.276289 -0.335135 8.357005
628 0 1 -1.179400 6.332838 -0.975167 8.578935
629 0 2 0.589700 7.125895 -0.688456 8.108253
630 0 2 0.589700 6.064740 -0.214318 9.094899
631 0 1 -1.179400 1.856611 9.487467 6.128124
632 0 2 0.589700 1.432489 8.926674 5.486690
633 0 2 0.589700 2.369429 10.111594 5.602036
634 0 1 -1.179400 7.773654 2.963768 4.539350
635 0 2 0.589700 8.088512 2.060780 4.504300
636 0 2 0.589700 8.440124 3.431597 5.032917
637 0 1 -1.179400 -5.167390 10.122515 12.821311
638 0 2 0.589700 -6.077486 9.836988 12.943863
639 0 2 0.589700 -4.675333 9.312604 12.682820
640 0 1 -1.179400 -2.009648 11.380761 11.046936
641 0 2 0.589700 -1.500123 12.134137 10.733392
642 0 2 0.589700 -2.923602 11.629650 10.911741
643 0 1 -1.179400 -3.070266 -0.576131 8.881702
644 0 2 0.589700 -3.710074 0.027541 9.267752
645 0 2 0.589700 -3.813867 46.071106 8.439837
646 0 1 -1.179400 8.130253 10.434805 12.536466