LAMMPS data file via write_data, version 29 Sep 2021, timestep = 400000

1008 atoms
2 atom types

0.24094939673862115 18.158605603261545 xlo xhi
-0.13035435844813748 22.70074335844997 ylo yhi
0.08429569205832443 19.421420307941673 zlo zhi
-0.3360913157435835 -6.886169865624007 0.5007319124144683 xy xz yz

Masses

1 1.008
2 15.999

Atoms # full

1 0 1 0 6.572233880641887 1.2577844007324837 4.986588149912807 0 0 0
2 0 2 0 6.617176973295953 2.164164655654142 5.335383976392167 0 0 0
3 0 2 0 5.622097685333491 1.122265679222887 4.841925756325919 0 0 0
4 0 1 0 3.775761996551208 0.8921968647202121 5.027182288776153 0 0 0
5 0 2 0 3.1854813180811727 0.10490710582842393 4.954939528159269 0 0 0
6 0 2 0 3.5135185956123545 1.5747542687221276 4.465998132827797 0 0 0
7 0 1 0 -0.3369954194503808 6.916131983787504 5.146188994838274 0 0 0
8 0 2 0 -0.20143451004372825 6.546844564454703 6.054310318490862 0 0 0
9 0 2 0 -0.3118847283600308 6.103365624388281 4.579970775690642 0 0 0
10 0 1 0 2.270043057661751 6.52121116359147 4.692425901775556 0 0 0
11 0 2 0 2.2501771167942386 5.684397695080819 5.208333609439274 0 0 0
12 0 2 0 1.4805438525313734 6.9482557975136405 4.996538306946179 0 0 0
13 0 1 0 4.661967618081307 5.135162239379098 10.0031282767984 0 0 0
14 0 2 0 3.831755148963516 4.721796081157335 10.244393985356055 0 0 0
15 0 2 0 4.7519727598685595 5.945652722535852 10.558932294791209 0 0 0
16 0 1 0 5.592271563563738 4.724639329146146 0.08567085292796618 0 0 0
17 0 2 0 6.488726290564542 4.4334253677576045 0.10358426602050799 0 0 0
18 0 2 0 -1.8399300930890128 4.448686224071468 19.183570473141152 0 0 -1
19 0 1 0 1.4026430435723505 2.911277306789846 0.30543352296083837 0 0 0
20 0 2 0 -5.598983985904052 2.6021392742117735 19.132063098098037 0 0 -1
21 0 2 0 1.3332854140298416 2.588966784967808 1.2480677693615816 0 0 0
22 0 1 0 0.21648908116259857 2.6223567835583874 9.454214928821603 0 0 0
23 0 2 0 0.3610798718526711 1.770991211631919 9.927653646648523 0 0 0
24 0 2 0 1.0741517077442202 3.0709454693428135 9.54078651351539 0 0 0
25 0 1 0 4.496879557497531 6.266750390379484 7.467869032940692 0 0 0
26 0 2 0 4.630672178775597 5.65245989819503 6.71845275983563 0 0 0
27 0 2 0 4.620442798030103 5.724840516967646 8.270759811351716 0 0 0
28 0 1 0 5.781806312138346 6.20492449850773 2.4146438600725384 0 0 0
29 0 2 0 5.101069027689498 6.885730821499539 2.3955989916433706 0 0 0
30 0 2 0 5.674054372844612 5.702293911691095 1.5658787618870111 0 0 0
31 0 1 0 1.1543075860938088 0.8279036584913004 2.4183504582593534 0 0 0
32 0 2 0 0.7986776591848881 1.152508690623895 3.268675358360678 0 0 0
33 0 2 0 0.47107945586807576 0.2198222267725764 2.033979553820136 0 0 0
34 0 1 0 0.17277546804863597 1.2603645053941934 7.103461764975591 0 0 0
35 0 2 0 0.3217008274129234 1.838797448049284 7.850745073625747 0 0 0
36 0 2 0 -0.7710404217947759 1.0876914041197747 7.205133020237949 0 0 0
37 0 1 0 6.350605706168682 2.5760896012619474 2.4767486891453427 0 0 0
38 0 2 0 6.449148031262405 2.1283459200882096 1.6091996080479731 0 0 0
39 0 2 0 6.324410229882929 1.888253324144472 3.1279566729869637 0 0 0
40 0 1 0 4.158005925648645 2.6299220680145496 7.197263986953376 0 0 0
41 0 2 0 4.052341113762029 1.8500293069541902 6.604742386510878 0 0 0
42 0 2 0 3.871920531662169 2.386684553163718 8.051407047636312 0 0 0
43 0 1 0 -0.5321224015195347 4.85600374634707 7.671393049739533 0 0 0
44 0 2 0 -0.4166593705019639 5.413814423101442 8.511330501211383 0 0 0
45 0 2 0 0.33047945510585874 4.6968296436993064 7.305552584599271 0 0 0
46 0 1 0 1.9453253563921593 5.078289162771611 2.4401783499666045 0 0 0
47 0 2 0 2.0372663036694547 5.396408011285035 1.5415723595003183 0 0 0
48 0 2 0 2.1209421997989146 5.8724982927224385 2.990897367946676 0 0 0
49 0 1 0 6.863341779884461 3.720628608540651 6.4110186873106 0 0 0
50 0 2 0 6.098989164186605 3.433558838446175 6.942496261170125 0 0 0
51 0 2 0 6.379017509475656 4.35301192728392 5.7838317737848595 0 0 0
52 0 1 0 3.8078655215096537 3.2336111262046185 3.254505307036699 0 0 0
53 0 2 0 4.545650538289807 3.1243827368245816 2.5869388933487 0 0 0
54 0 2 0 3.181161846200339 3.8745418785175207 2.84798809839653 0 0 0
55 0 1 0 -0.5286418807385923 4.767983360303192 3.3470133644958446 0 0 0
56 0 2 0 16.687212308872926 4.0919419733302815 3.112218958125499 -1 0 0
57 0 2 0 0.22047303827292597 4.666782464171237 2.6976985635792 0 0 0
58 0 1 0 1.9360362832808584 4.350347034581615 6.161243051559828 0 0 0
59 0 2 0 1.55086223230459 3.750394033531107 5.492667090194509 0 0 0
60 0 2 0 2.726291716629077 3.8979768356348488 6.569005421024553 0 0 0
61 0 1 0 8.440732935505757 7.157851732072914 1.7094367760771 0 0 0
62 0 2 0 7.86722996468067 7.704987844682713 1.142916921977513 0 0 0
63 0 2 0 7.78092208568447 6.609083240588765 2.1779084401962923 0 0 0
64 0 1 0 1.9193443878496592 7.098176978436594 8.409072687291793 0 0 0
65 0 2 0 2.279967706482186 7.759576543469926 9.070132389284808 0 0 0
66 0 2 0 2.7716537398159593 6.827388920645552 7.924064031489464 0 0 0
67 0 1 0 -2.315397054747 0.3508137080903893 8.144004800789538 0 0 0
68 0 2 0 14.544547655313691 22.796836359342667 7.602734938233851 -1 -1 0
69 0 2 0 -2.6290422869128727 1.1710065745834208 8.496627481356798 0 0 0
70 0 1 0 4.059377515136674 0.47186095200272765 1.5548070441235626 0 0 0
71 0 2 0 3.2846548245433076 0.48888943496116616 2.1367560474568243 0 0 0
72 0 2 0 4.334041280129565 22.59124332878412 1.8904701696129165 0 -1 0
73 0 1 0 5.004727028560678 5.183888338329295 4.917738571232642 0 0 0
74 0 2 0 4.363023275483364 4.465044703012049 4.654199524795137 0 0 0
75 0 2 0 5.1928764246919314 5.659902340277446 4.070169280656579 0 0 0
76 0 1 0 0.5463087118948795 2.2402700291403232 4.636086638561683 0 0 0
77 0 2 0 0.28872231414217797 1.8426284054971052 5.495645312351778 0 0 0
78 0 2 0 -0.07100415604326638 2.8835795932157193 4.312422157301037 0 0 0
79 0 1 0 0.09040150842882966 2.000232534679437 19.26224632527537 0 0 -1
80 0 2 0 -0.40042332079521614 1.2844526427232725 18.809963849304772 0 0 -1
81 0 2 0 7.5131536040509905 1.0030890313350866 0.5443530756186057 0 0 0
82 0 1 0 -4.372641472352997 6.715801938091094 19.362089307304558 0 0 -1
83 0 2 0 -5.086746430058247 7.1761787508182415 18.9355305238239 0 0 -1
84 0 2 0 -3.967265799515124 6.241908037872052 18.52736805017407 0 0 -1
85 0 1 0 15.703292863249736 1.0635025372094997 5.159447730815585 0 0 0
86 0 2 0 15.68431046690379 1.3998293627422378 4.245890509676218 0 0 0
87 0 2 0 14.792413490759804 0.7952158021769034 5.183099246224521 0 0 0
88 0 1 0 12.724657328305582 1.1900640131578042 5.08342036603627 0 0 0
89 0 2 0 12.18273151719275 0.3633660536896183 5.211013581112957 0 0 0
90 0 2 0 12.677294049589388 1.5993755917972983 5.987834372666473 0 0 0
91 0 1 0 8.320225103128221 6.611468653244155 5.224207786401369 0 0 0
92 0 2 0 7.5703017386825895 7.255101842180212 5.154012775175986 0 0 0
93 0 2 0 8.064381570868676 5.851870322173515 4.609968131112922 0 0 0
94 0 1 0 10.946968263629163 6.493881356387326 4.673400561664815 0 0 0
95 0 2 0 9.969320181803392 6.637327843110147 4.822187460824856 0 0 0
96 0 2 0 11.371673114876781 7.3528061010420025 4.845610310682744 0 0 0
97 0 1 0 14.085004900502845 4.950640679745338 9.490912962570352 0 0 0
98 0 2 0 13.922592338854262 5.4712005106697905 8.657695317192921 0 0 0
99 0 2 0 13.98120099463096 5.7066600232716285 10.150987804552612 0 0 0
100 0 1 0 14.603816445380756 4.63876020245216 0.34481713736361796 0 0 0
101 0 2 0 15.494686066523684 4.334473699421973 0.2489087008175887 0 0 0
102 0 2 0 7.645463666201754 5.849918746776678 19.057915717430213 0 0 -1
103 0 1 0 10.240371152487468 2.5110184530093607 0.31024578597838354 0 0 0
104 0 2 0 9.612447268636881 3.302280342745253 0.35917148978696933 0 0 0
105 0 2 0 4.188644209408948 3.3766491914803103 19.382543655171915 0 0 -1
106 0 1 0 9.326294756422973 3.0675107443547316 9.86399231146407 0 0 0
107 0 2 0 9.379722936717243 2.7876861496420515 8.938920043248146 0 0 0
108 0 2 0 9.36832587870817 2.2550213444583225 10.396319540592076 0 0 0
109 0 1 0 13.358762492057489 6.648985630709603 7.401772674148332 0 0 0
110 0 2 0 13.306213015236075 6.241958974569213 6.51514257579544 0 0 0
111 0 2 0 12.452264522401236 6.976193060438743 7.577075703838764 0 0 0
112 0 1 0 14.89788101975848 6.367501491868294 2.675906006079772 0 0 0
113 0 2 0 14.85169962176822 6.047676582939764 3.6008579994405134 0 0 0
114 0 2 0 14.799569337520314 5.638178386271193 2.034676496355655 0 0 0
115 0 1 0 10.385754300938048 1.3207144056412499 2.72754376301682 0 0 0
116 0 2 0 11.119115535470712 0.6856329858549165 2.8425632355921584 0 0 0
117 0 2 0 10.587954704435608 1.8480457296186543 1.9309358155203908 0 0 0
118 0 1 0 9.116768471148548 1.5738177208106632 7.37879680828481 0 0 0
119 0 2 0 9.157927260541156 1.7128320649011057 6.436569436008443 0 0 0
120 0 2 0 9.708552056257474 0.8124536369808096 7.533511862229121 0 0 0
121 0 1 0 15.823644875208803 2.755448395557601 2.980401822040209 0 0 0
122 0 2 0 15.8185164690992 2.4112251020748534 2.0542191189941823 0 0 0
123 0 2 0 14.925908813967425 3.135217228914512 3.043844791449958 0 0 0
124 0 1 0 12.90618025542489 2.6846409873138097 7.375472441251488 0 0 0
125 0 2 0 12.195229523551559 3.298988605968642 7.236156628598591 0 0 0
126 0 2 0 13.717736988714929 3.1260723363550107 7.085258482884903 0 0 0
127 0 1 0 8.551151125965813 5.305031646003631 7.62593216197008 0 0 0
128 0 2 0 8.542648590528293 5.905685918769387 6.8954669951552905 0 0 0
129 0 2 0 8.057157218085077 4.548566703295868 7.175351173315952 0 0 0
130 0 1 0 10.856367609902236 5.0263587580101285 2.4399815179907947 0 0 0
131 0 2 0 9.987181499674374 4.686239740043575 2.79646193754807 0 0 0
132 0 2 0 11.10844254531263 5.751683977466394 3.0908085225705553 0 0 0
133 0 1 0 15.26652114219333 3.4498457568731293 6.588429667918106 0 0 0
134 0 2 0 15.663444117691467 2.6225123205778167 6.188599496157199 0 0 0
135 0 2 0 -1.775930732398422 3.8574823958766946 6.933288589841845 1 0 0
136 0 1 0 13.089459813158276 3.413646213892565 3.5572768946472118 0 0 0
137 0 2 0 12.305486721042406 3.5573101579496087 3.002759004917057 0 0 0
138 0 2 0 12.944744250671874 2.584696769061779 4.131356073329365 0 0 0
139 0 1 0 8.319258617027375 4.373186097395229 3.510143872960956 0 0 0
140 0 2 0 7.576704976179807 3.793105182256915 3.1381788270842903 0 0 0
141 0 2 0 8.758634495034716 3.748711867185638 4.119700470346097 0 0 0
142 0 1 0 11.165326217527898 4.739848648229362 6.7167103790293154 0 0 0
143 0 2 0 11.176982807499023 5.3057710641994955 5.906088818681626 0 0 0
144 0 2 0 10.350976093435442 4.885915460073358 7.196296894895958 0 0 0
145 0 1 0 17.146350341379065 7.032342837330517 1.5105927823982401 0 0 0
146 0 2 0 16.596193986312237 6.560103349799039 2.0883249492390443 0 0 0
147 0 2 0 16.634414545072516 7.6628274380704315 0.971087408606101 0 0 0
148 0 1 0 11.002653669207142 7.335184039906712 8.6551912645468 0 0 0
149 0 2 0 10.905828673142212 6.4884567495843894 9.097595228401945 0 0 0
150 0 2 0 10.170901950353008 7.745798256160359 8.322892259687714 0 0 0
151 0 1 0 6.7336694780983475 0.6763172239396377 8.522348824856952 0 0 0
152 0 2 0 7.3315707930005285 1.1162807278104352 7.844653664013584 0 0 0
153 0 2 0 6.357601572470584 1.3847404845812072 9.10896292218835 0 0 0
154 0 1 0 12.894335822485358 0.014843712153721857 1.654235625699589 0 0 0
155 0 2 0 12.925502301232783 0.9077964655357721 1.1776601790682848 0 0 0
156 0 2 0 12.022974598389226 22.215188845750333 1.0577524360429376 0 -1 0
157 0 1 0 13.973148567595947 5.399273212778129 5.162780294235682 0 0 0
158 0 2 0 13.491321676107685 4.697705108052812 4.638961979973771 0 0 0
159 0 2 0 14.584641279258848 4.828838580754754 5.650006868839554 0 0 0
160 0 1 0 9.829420957789598 2.6586027558556897 5.196655978762627 0 0 0
161 0 2 0 10.514796538213355 3.1216284120420967 5.695134439106062 0 0 0
162 0 2 0 10.32965900951002 2.089935906312463 4.598983047577518 0 0 0
163 0 1 0 16.102878630067277 1.51854282119235 0.2720874343577481 0 0 0
164 0 2 0 9.724075863984039 2.398186576716666 18.855086684719552 0 0 -1
165 0 2 0 8.464731439063986 1.5930629909344418 19.193479526987566 0 0 -1
166 0 1 0 11.411753324134299 5.876798304866268 0.1822542685007788 0 0 0
167 0 2 0 11.166156673992727 5.6346719141662325 1.057864350246504 0 0 0
168 0 2 0 3.9881890925587413 7.173736359742963 19.227835377452934 0 0 -1
169 0 1 0 6.458838792605179 8.516299709661709 4.717368217852657 0 0 0
170 0 2 0 5.493685101151547 8.550886807898014 4.860006708588489 0 0 0
171 0 2 0 6.749388814754426 9.2191601938398 5.337991199273383 0 0 0
172 0 1 0 3.885072286821135 8.721497356102992 5.091164993539574 0 0 0
173 0 2 0 3.5059011383864758 7.827288326639061 5.032041361461169 0 0 0
174 0 2 0 3.501697875247029 9.213125132386763 4.335132802916448 0 0 0
175 0 1 0 -0.6440801429465801 14.320412576524877 4.972847071616288 0 0 0
176 0 2 0 -1.2349934363093817 15.081757996039972 4.734533345164462 0 0 0
177 0 2 0 0.2960935017525488 14.500712880689763 4.758675588556368 0 0 0
178 0 1 0 2.0566393442497715 13.755818393225754 4.805351291352018 0 0 0
179 0 2 0 2.1944543643084593 13.120174539246952 5.516262743738615 0 0 0
180 0 2 0 1.8610078774832737 13.30255547192026 3.955420627946853 0 0 0
181 0 1 0 4.683178702568892 12.523973078063692 9.525587990631847 0 0 0
182 0 2 0 5.176938134770808 13.198738598308363 10.047055005315235 0 0 0
183 0 2 0 5.187588770466282 11.684916500666839 9.654638115040692 0 0 0
184 0 1 0 -1.4606107281972358 12.94629216318901 19.397615681175587 0 0 -1
185 0 2 0 -1.6445233997822193 13.583936372244358 18.673513750355568 0 0 -1
186 0 2 0 -0.6019129138135852 12.577891705056325 19.098326463656143 0 0 -1
187 0 1 0 0.95117998518369 10.215200979479901 0.08633433232814633 0 0 0
188 0 2 0 1.0067619535977868 9.835845016137961 0.9701792263208171 0 0 0
189 0 2 0 -4.99029052183001 10.993281316954791 19.29824478565223 0 0 -1
190 0 1 0 0.4113784674516001 10.467692546557643 9.87581138552468 0 0 0
191 0 2 0 0.39935424461774316 9.873971090235079 9.070612334688937 0 0 0
192 0 2 0 0.9876051059052857 11.265550905291104 9.734275837441809 0 0 0
193 0 1 0 4.419199430357683 13.89316973981679 6.872465680158348 0 0 0
194 0 2 0 4.451228953925583 13.411830610653476 6.014159933687889 0 0 0
195 0 2 0 4.623298902695094 13.22486285429882 7.572471556790623 0 0 0
196 0 1 0 5.606714183869151 14.137179048394161 2.3392641229131326 0 0 0
197 0 2 0 5.303832271958699 13.58500863935942 1.6464792319803023 0 0 0
198 0 2 0 5.523550489769155 13.673551036889519 3.213164474647912 0 0 0
199 0 1 0 1.2454867569817276 8.972486106559842 2.6231524189754563 0 0 0
200 0 2 0 0.5221339653867905 8.3801009052164 2.4311674465642685 0 0 0
201 0 2 0 2.0692253223990753 8.550233739874177 2.329630739036268 0 0 0
202 0 1 0 0.11785171280220652 8.725869258701033 7.581571685658036 0 0 0
203 0 2 0 -0.746691632761117 8.287948099374828 7.765064428830555 0 0 0
204 0 2 0 0.8203235425992914 8.09583155894689 7.79652876129542 0 0 0
205 0 1 0 6.0958351229408 9.928043881191002 2.4469203369286516 0 0 0
206 0 2 0 6.223033663381296 9.39375493816901 3.203321343499188 0 0 0
207 0 2 0 6.51832351846136 10.7208994673018 2.779172272110494 0 0 0
208 0 1 0 3.896315186534693 9.912484237289716 7.538910615849448 0 0 0
209 0 2 0 3.2271589851720837 10.57846648812125 7.537319286357029 0 0 0
210 0 2 0 3.7281910394922435 9.461927920650888 6.658022145478342 0 0 0
211 0 1 0 -0.7351831235298933 12.777232948677865 7.286348566185249 0 0 0
212 0 2 0 -0.7062716854936775 13.205598390068653 8.092860806518344 0 0 0
213 0 2 0 -0.6479691007014032 13.398267742548512 6.5719907148820385 0 0 0
214 0 1 0 1.5480558513703706 12.534120215630727 2.3341500805171527 0 0 0
215 0 2 0 1.618635593451842 13.152711928821313 1.5364443700079604 0 0 0
216 0 2 0 0.6368284870157579 12.282975852795063 2.61014404997888 0 0 0
217 0 1 0 6.469296689583608 10.823768225447427 6.401892805074392 0 0 0
218 0 2 0 5.789046135689012 10.77287593371366 7.09768279282009 0 0 0
219 0 2 0 7.279751409859099 11.123260926361601 6.8091147756421275 0 0 0
220 0 1 0 3.611586909884121 10.79970012461614 3.1501750487194613 0 0 0
221 0 2 0 4.336118324336246 10.789986608932777 2.4917787542777807 0 0 0
222 0 2 0 2.892827355265944 11.319335073053175 2.751415853522542 0 0 0
223 0 1 0 -0.8131236141947576 12.040627039117965 3.657127070406988 0 0 0
224 0 2 0 -0.3755985791798211 11.514712930644123 4.302668165462858 0 0 0
225 0 2 0 -0.8199890606097026 12.935606469635216 4.0544213630077035 0 0 0
226 0 1 0 1.8686683990210189 11.653228310035118 6.64433513788275 0 0 0
227 0 2 0 1.0994300804501527 12.038719770475629 7.0038032768000695 0 0 0
228 0 2 0 1.4638658771331698 11.05907628328485 5.970400363747305 0 0 0
229 0 1 0 8.195225057396035 14.39337592361213 1.4700751964029182 0 0 0
230 0 2 0 7.352756082913725 14.382768698630983 1.9233165444940759 0 0 0
231 0 2 0 8.806559042806136 14.921952212793023 2.054407139554606 0 0 0
232 0 1 0 1.8871806200886319 14.524584427437617 7.867080562268318 0 0 0
233 0 2 0 2.7154820559842903 14.448817185118756 7.360415338686388 0 0 0
234 0 2 0 1.3776877716603795 15.140986064795815 7.3733488499276945 0 0 0
235 0 1 0 -2.4713469056399027 7.999289099007068 8.443856644681508 0 0 0
236 0 2 0 14.626781131597049 7.592554716087504 8.132665436365805 -1 0 0
237 0 2 0 -2.6542912542154995 8.829632903291207 8.9202229437266 0 0 0
238 0 1 0 3.5331741436185906 7.761396845193619 1.9419735641175413 0 0 0
239 0 2 0 4.008021829752115 8.54413174622101 1.5649084527206787 0 0 0
240 0 2 0 3.228900854878526 7.284929899660143 1.1334280168148876 0 0 0
241 0 1 0 5.1540383740066105 12.616633330699287 4.667754004693395 0 0 0
242 0 2 0 5.844733387777811 12.089318500881449 5.0123896294168695 0 0 0
243 0 2 0 4.535372653876756 12.005536497392274 4.219475331453693 0 0 0
244 0 1 0 0.5713587549009007 10.011556166712804 5.146763212045979 0 0 0
245 0 2 0 0.6169702959412484 9.462857186441358 4.394937762517329 0 0 0
246 0 2 0 0.19268679838621772 9.490976250275667 5.867043699239085 0 0 0
247 0 1 0 0.46545993418583276 9.50341885524187 19.310247985441798 0 0 -1
248 0 2 0 7.011304228503408 9.528511550100886 0.7553382602677734 0 0 0
249 0 2 0 -0.26447481068291534 8.925394809967647 19.049725483832354 0 0 -1
250 0 1 0 2.174492008229795 14.081914540339685 0.3668156047476078 0 0 0
251 0 2 0 -5.374402279802048 15.167326042708217 19.257403499633497 0 0 -1
252 0 2 0 2.934214978761475 14.598370959606262 0.6548933609313432 0 0 0
253 0 1 0 15.216191435912659 8.579445177441015 4.82274164551394 0 0 0
254 0 2 0 15.819993729919469 7.836290400596 4.827713686027038 0 0 0
255 0 2 0 15.42610476142412 9.181687470699085 4.098550750163764 0 0 0
256 0 1 0 12.517316612821965 8.694119773183413 5.2026212835830705 0 0 0
257 0 2 0 13.428309825030988 8.398662129292978 5.048149822866298 0 0 0
258 0 2 0 12.555650173324018 8.86845348925466 6.166080771335375 0 0 0
259 0 1 0 7.744345225421731 13.946338382420826 5.000773006309665 0 0 0
260 0 2 0 8.640375859845328 14.207123086197214 5.227098913479079 0 0 0
261 0 2 0 7.818301527526616 13.135520436438998 4.4796573186762325 0 0 0
262 0 1 0 10.719501469038686 14.056408222639178 5.176581499206321 0 0 0
263 0 2 0 10.67601862967619 13.977897211972913 4.227158954426436 0 0 0
264 0 2 0 11.271478493492822 14.815643349486972 5.445238175614866 0 0 0
265 0 1 0 13.78254732631147 12.746701090603263 9.568585417345446 0 0 0
266 0 2 0 14.423737457783671 12.051054471829106 9.720121185459611 0 0 0
267 0 2 0 13.958188256931026 13.201492104625071 8.728981332084908 0 0 0
268 0 1 0 14.416147083166264 12.160892856759967 0.32185657515829597 0 0 0
269 0 2 0 14.176943656007392 12.623554056746803 1.142842842564913 0 0 0
270 0 2 0 13.750589823952945 11.500591114613753 0.22895081630459382 0 0 0
271 0 1 0 9.895121217084217 10.308451053265259 0.23474417675102044 0 0 0
272 0 2 0 3.9404410217591064 10.91258489074279 19.399966311950784 0 0 -1
273 0 2 0 9.919174173074937 10.029280481455897 1.1918221922327412 0 0 0
274 0 1 0 9.012521935328508 10.680599739854568 9.820634144072923 0 0 0
275 0 2 0 9.688859027199694 11.396352603088923 9.912637491573378 0 0 0
276 0 2 0 9.046000229932039 10.279520263371321 8.934073415348864 0 0 0
277 0 1 0 13.411384382029837 14.134717234932562 7.181486922897245 0 0 0
278 0 2 0 14.148741103098438 14.697359117966739 7.471590585716104 0 0 0
279 0 2 0 12.64077377102893 14.45414565843976 7.652917144514499 0 0 0
280 0 1 0 14.515178623595812 14.08588545199871 2.400148167866882 0 0 0
281 0 2 0 14.431205894334713 13.744270712833373 3.285465571663618 0 0 0
282 0 2 0 15.498798404903816 14.189515045785217 2.275446768163987 0 0 0
283 0 1 0 10.27860089764843 8.864080159833227 2.6638048546036495 0 0 0
284 0 2 0 9.652191522865818 8.242454073105817 2.3013871130866472 0 0 0
285 0 2 0 11.191342128616768 8.566090175346652 2.4577359497449933 0 0 0
286 0 1 0 8.813485857648613 8.725345788225892 7.586084836714045 0 0 0
287 0 2 0 7.865294040296232 8.590377378884822 7.576642330066511 0 0 0
288 0 2 0 9.072575402309432 8.72871551849843 6.62351394994888 0 0 0
289 0 1 0 15.043134015962382 10.451347625007907 2.9586377261562378 0 0 0
290 0 2 0 15.60443027557643 11.233776486135842 2.983629491023706 0 0 0
291 0 2 0 14.172117645833124 10.668301714538277 3.197609110740836 0 0 0
292 0 1 0 12.740771917429926 10.180862551515776 7.389151247408025 0 0 0
293 0 2 0 13.695528345443261 10.27566756053574 7.301592155939587 0 0 0
294 0 2 0 12.647862470528231 10.050544877742823 8.331644910317182 0 0 0
295 0 1 0 8.423592509663665 12.38595923268754 7.5347326481354475 0 0 0
296 0 2 0 8.15400351543861 12.92684396646636 6.760653179803094 0 0 0
297 0 2 0 9.347420034886362 12.139964115605503 7.264192861337683 0 0 0
298 0 1 0 10.400869323500823 12.762660278725678 2.61224037763332 0 0 0
299 0 2 0 10.428067394517214 12.942784200181153 1.6603264560706525 0 0 0
300 0 2 0 11.055613990597529 12.016319477598755 2.618293823911364 0 0 0
301 0 1 0 15.351828457610944 10.823754052412323 6.281196818878297 0 0 0
302 0 2 0 15.603200580336479 9.970391527653181 5.8320241939443855 0 0 0
303 0 2 0 -1.7966834423234688 11.2749600923114 6.67341099703792 1 0 0
304 0 1 0 12.40167037002094 10.931123215928789 3.5737140561964105 0 0 0
305 0 2 0 12.392728355210604 10.1211724163079 4.17245991097377 0 0 0
306 0 2 0 12.621393111279172 11.713345536586118 4.09158411932484 0 0 0
307 0 1 0 7.955051907634986 11.606727156772715 3.544395796745987 0 0 0
308 0 2 0 8.716637602019585 12.052471013869575 3.001694730887153 0 0 0
309 0 2 0 8.496207558922036 10.95604674828224 4.073348146633206 0 0 0
310 0 1 0 10.73886259327542 11.768310610037949 6.343697460584973 0 0 0
311 0 2 0 11.513999987827638 11.2020716614445 6.585567917108653 0 0 0
312 0 2 0 10.950053737211269 12.507331260477104 5.775237470545679 0 0 0
313 0 1 0 16.934332486382207 14.695263357988221 1.4651567592712231 0 0 0
314 0 2 0 -0.14602552605621977 14.882163995946573 1.9360044261004838 1 0 0
315 0 2 0 17.097592826915886 13.869710598401888 0.9599163290663305 0 0 0
316 0 1 0 10.93875129282119 14.831880295210265 8.138921017031194 0 0 0
317 0 2 0 10.743063198621158 13.916340348411422 8.442829659057344 0 0 0
318 0 2 0 11.165392994154768 15.298565914833125 9.014471292284108 0 0 0
319 0 1 0 6.268760081576817 8.176661501021627 8.20943883728368 0 0 0
320 0 2 0 6.7130948877268075 7.531065859673562 8.823488563739993 0 0 0
321 0 2 0 5.645295441155403 7.575608075045767 7.742967659010982 0 0 0
322 0 1 0 12.75155296172765 7.920161682518578 1.5711763567780985 0 0 0
323 0 2 0 12.485716017113376 7.196099047947471 0.9695887980315039 0 0 0
324 0 2 0 13.423799216895343 7.509028519754345 2.1018843764479516 0 0 0
325 0 1 0 13.99746223211135 12.818647666072874 4.820294819248596 0 0 0
326 0 2 0 14.530100372806883 12.045810829663573 5.063124986946323 0 0 0
327 0 2 0 13.82437681925032 13.286914101126321 5.672204339496447 0 0 0
328 0 1 0 9.260101411151608 9.665134077072585 5.02352766318966 0 0 0
329 0 2 0 9.732033358664186 9.24507291623572 4.282412678786359 0 0 0
330 0 2 0 9.95712204394142 10.282466314684129 5.351346009556837 0 0 0
331 0 1 0 15.56765975687604 8.955747829143416 0.3618763022045728 0 0 0
332 0 2 0 15.403052029471121 9.397333200735273 1.1452558419600192 0 0 0
333 0 2 0 9.013607931090785 10.011696088087582 18.984991798034415 0 0 -1
334 0 1 0 4.464272568900533 14.057676222800596 19.381343204496837 0 0 -1
335 0 2 0 4.986231628011927 13.464705236184026 18.903443115658177 0 0 -1
336 0 2 0 3.9914440196275836 14.637020613841091 18.761184123736612 0 0 -1
337 0 1 0 6.3910696450153015 16.56982101222531 4.7297017151607905 0 0 0
338 0 2 0 7.046941478061277 15.825316217125726 4.740948892028528 0 0 0
339 0 2 0 6.556656031843445 17.0692270057497 3.891863438754501 0 0 0
340 0 1 0 3.524428545286902 16.13122123910791 4.9187348005532705 0 0 0
341 0 2 0 3.0262654926178825 15.300173134525966 4.871860620482995 0 0 0
342 0 2 0 4.464008698323829 15.833030867799915 4.8905819451869545 0 0 0
343 0 1 0 -1.1630856912707337 21.451729952422898 5.06335030723135 0 0 0
344 0 2 0 -1.0855933346312523 21.063720028187202 5.946446050513497 0 0 0
345 0 2 0 -1.5250048086806745 22.33391219152769 5.101071586807902 0 0 0
346 0 1 0 1.893809618191894 21.475925587041882 4.687191642893504 0 0 0
347 0 2 0 1.9459289845136654 20.672635410619492 5.211072725927919 0 0 0
348 0 2 0 0.9267176127538592 21.744133276030965 4.69685667128931 0 0 0
349 0 1 0 4.320213535196091 19.85881671913407 9.809475648462897 0 0 0
350 0 2 0 4.310942059837617 20.693173096419894 10.327880163106359 0 0 0
351 0 2 0 4.677246028891032 20.17766395262628 8.970396516831602 0 0 0
352 0 1 0 5.246557402824068 19.972163838503135 0.2214827944354282 0 0 0
353 0 2 0 4.629345739745504 19.238407342408042 0.3521728819238025 0 0 0
354 0 2 0 5.5359151750873075 20.214940604298903 1.0741126770703506 0 0 0
355 0 1 0 0.16580860221193616 17.399318323000788 0.275135094430673 0 0 0
356 0 2 0 0.3244447667513332 16.97112429551962 1.0927066098244516 0 0 0
357 0 2 0 11.0846278351605 17.20395348735325 18.958500598139395 -1 0 -1
358 0 1 0 -0.1854392867667709 17.896113866310202 9.298202529836805 0 0 0
359 0 2 0 0.07764038437121057 17.164184095614875 9.862189532074831 0 0 0
360 0 2 0 0.3831929907361227 18.701760186415797 9.364203998633036 0 0 0
361 0 1 0 4.690695392969487 21.512627927307733 7.575886740076796 0 0 0
362 0 2 0 5.221232226337282 22.362196441858543 7.884213695952339 0 0 0
363 0 2 0 3.7791090869245805 21.607508575487522 7.798997338041755 0 0 0
364 0 1 0 5.441166714568144 21.271168586049143 2.662251804070319 0 0 0
365 0 2 0 6.292507480770719 21.749545999233682 2.4613736097788506 0 0 0
366 0 2 0 5.315942230358553 21.10228640425379 3.596211343061604 0 0 0
367 0 1 0 1.1793968156716832 16.10877813637976 2.6554680441805534 0 0 0
368 0 2 0 2.1721685545071385 16.065674362289194 2.4828682663166908 0 0 0
369 0 2 0 1.107754204694859 16.46867662191795 3.5742580451619794 0 0 0
370 0 1 0 -0.15453604605986682 16.253809682556987 7.191473524452139 0 0 0
371 0 2 0 -0.0743106562750917 16.99660665887507 7.847660447783741 0 0 0
372 0 2 0 -0.18965740567788503 16.65745995368555 6.278774622063491 0 0 0
373 0 1 0 6.0894979295742795 17.94835830512855 2.492268289469753 0 0 0
374 0 2 0 6.263473633066654 17.47932796973605 1.65132521104219 0 0 0
375 0 2 0 5.188830029293404 18.19972360442422 2.5968064205825154 0 0 0
376 0 1 0 4.1130058503202385 17.60923758041511 7.22860787844845 0 0 0
377 0 2 0 3.996687998707386 17.150923993950688 6.391747960035799 0 0 0
378 0 2 0 5.007835159547296 18.028800144623144 7.164138727772972 0 0 0
379 0 1 0 -0.44261747237253424 19.88001611431766 7.30093682418915 0 0 0
380 0 2 0 -1.1049328645469512 19.32423892421188 6.922124494974895 0 0 0
381 0 2 0 -0.7505451891099875 20.307007339461144 8.108856940162323 0 0 0
382 0 1 0 1.3811247450142692 20.148744882018953 2.0004464323085602 0 0 0
383 0 2 0 1.8751146013744278 19.38051599529262 2.262823080339395 0 0 0
384 0 2 0 1.604509065210848 20.709102052087417 2.7237978501789737 0 0 0
385 0 1 0 6.495207795146708 18.61437546078778 6.3678537714994325 0 0 0
386 0 2 0 7.266511663880019 19.049266970044663 6.717777560511629 0 0 0
387 0 2 0 6.795116020953788 17.787385763318245 5.874530918561715 0 0 0
388 0 1 0 3.652052909203903 18.737292340201066 3.5462714990022466 0 0 0
389 0 2 0 3.2927485281050113 18.087881442117986 4.115655709790129 0 0 0
390 0 2 0 3.946599851125284 19.43507691565872 4.165952011148854 0 0 0
391 0 1 0 -0.9254449128482973 19.572197533644808 3.256530134866801 0 0 0
392 0 2 0 -0.3555273762441832 20.012867776915613 2.6395528615250607 0 0 0
393 0 2 0 -1.3161149005860424 20.283714026399092 3.8018044311451358 0 0 0
394 0 1 0 2.1879379118806757 19.21312985058996 6.363069144941385 0 0 0
395 0 2 0 1.4687745908328749 19.428301602389496 6.988286916978783 0 0 0
396 0 2 0 2.8438415687223313 18.801293453970164 6.908478423045682 0 0 0
397 0 1 0 7.888235233952635 22.48177706447234 1.6702123752921683 0 0 0
398 0 2 0 8.191209727855343 21.601173055744535 1.3662601227150735 0 0 0
399 0 2 0 8.971152621805519 0.01278791545758113 2.0640781225466602 0 1 0
400 0 1 0 2.062613961920977 22.448409710086413 8.252274515061133 0 0 0
401 0 2 0 2.704762678337907 0.3270824891450257 8.899722288239891 0 1 0
402 0 2 0 1.2291418543857349 22.767067415101884 7.892024810874004 0 0 0
403 0 1 0 -2.5926066222226005 15.642338030548732 8.507550927677116 0 0 0
404 0 2 0 -1.9226067148672854 15.933996320584848 7.8795555605989955 0 0 0
405 0 2 0 -2.9565130199261436 16.431907906151174 8.858203591776618 0 0 0
406 0 1 0 3.7280961802878214 15.96503817228544 1.6802536706120337 0 0 0
407 0 2 0 4.527112435087538 15.643808425501065 2.154731465970261 0 0 0
408 0 2 0 3.9761227076766668 16.70635506170662 1.0889701714260005 0 0 0
409 0 1 0 5.069183961053092 20.487592502316705 5.13702105473089 0 0 0
410 0 2 0 5.645626902066259 19.857957315959172 5.628994410819268 0 0 0
411 0 2 0 4.945293445236176 21.23513422409174 5.7723533709405865 0 0 0
412 0 1 0 0.2865268716919005 17.713294157214783 4.850515181241887 0 0 0
413 0 2 0 0.9020939475224721 18.25810570691 5.369343397171224 0 0 0
414 0 2 0 -0.13802561655179568 18.377888877534193 4.268645556978437 0 0 0
415 0 1 0 6.717485342684018 16.271497345169397 0.22438363386251334 0 0 0
416 0 2 0 7.336211746233989 15.671022569015243 0.6184803877800129 0 0 0