LAMMPS (29 Sep 2021 - Update 2)
  using 1 OpenMP thread(s) per MPI task
echo both

include		in.partitions
variable        pid world 0
include		in.temp
variable        temperature equal 255
variable        tempDamp equal 0.100 # this is 0.1 ps
include		in.pressure
variable        pressure equal 6079.5
variable        pressureDamp equal 1.0 #this is 1ps
include		in.seed
variable        seed world 745823

units           metal
atom_style	full
include		in.box
read_data       iceV.data
Reading data file ...
  triclinic box = (0.0000000 0.0000000 0.0000000) to (18.399555 22.570389 19.505716) with tilt (0.0000000 -6.7926110 0.0000000)
  1 by 1 by 1 MPI processor grid
  reading atoms ...
  1008 atoms
Finding 1-2 1-3 1-4 neighbors ...
  special bond factors lj:    0        0        0       
  special bond factors coul:  0        0        0       
     0 = max # of 1-2 neighbors
     0 = max # of 1-3 neighbors
     0 = max # of 1-4 neighbors
     1 = max # of special neighbors
  special bonds CPU = 0.004 seconds
  read_data CPU = 0.029 seconds
include 	in.setup
variable	out_freq equal 500
variable	out_freq2 equal 500

timestep        0.0005

neigh_modify    delay 7 every 1

include         in.deepmd
# This is deepMD model

# create groups ###
#group ox type 2
#group hy type 1

mass 2 15.999
mass 1 1.008

pair_style      deepmd ../graph.pb
pair_coeff      * *

bond_style      none
angle_style     none
dihedral_style  none
improper_style  none
neigh_modify exclude none


neighbor        2.0 bin
neigh_modify    every 10 delay 0 check no

thermo          ${out_freq}
thermo          500
thermo_style 	custom step temp pe etotal epair emol press lx ly lz xy xz yz vol pxx pyy pzz pxy pxz pyz

restart 	${out_freq} restart.lmp.${pid} restart2.lmp.${pid}
restart 	500 restart.lmp.${pid} restart2.lmp.${pid}
restart 	500 restart.lmp.0 restart2.lmp.${pid}
restart 	500 restart.lmp.0 restart2.lmp.0


include         in.dump
dump            myDump all atom ${out_freq2} dump.water.${pid}
dump            myDump all atom 500 dump.water.${pid}
dump            myDump all atom 500 dump.water.0
dump            myDump2 all dcd ${out_freq2} dump.dcd
dump            myDump2 all dcd 500 dump.dcd
dump_modify     myDump append yes
dump_modify     myDump2 append yes


timer           timeout 03:55:00 every 1000
New timer settings: style=normal  mode=nosync  timeout=03:55:00

fix             2 all nph tri ${pressure} ${pressure} ${pressureDamp}
fix             2 all nph tri 6079.5 ${pressure} ${pressureDamp}
fix             2 all nph tri 6079.5 6079.5 ${pressureDamp}
fix             2 all nph tri 6079.5 6079.5 1
fix             3 all temp/csvr ${temperature} ${temperature} ${tempDamp} ${seed}
fix             3 all temp/csvr 255 ${temperature} ${tempDamp} ${seed}
fix             3 all temp/csvr 255 255 ${tempDamp} ${seed}
fix             3 all temp/csvr 255 255 0.1 ${seed}
fix             3 all temp/csvr 255 255 0.1 745823
velocity 	all create ${temperature} ${seed} dist gaussian
velocity 	all create 255 ${seed} dist gaussian
velocity 	all create 255 745823 dist gaussian

run             400000

CITE-CITE-CITE-CITE-CITE-CITE-CITE-CITE-CITE-CITE-CITE-CITE-CITE

Your simulation uses code contributions which should be cited:

- USER-DEEPMD package:

@article{Wang_ComputPhysCommun_2018_v228_p178,
  author = {Wang, Han and Zhang, Linfeng and Han, Jiequn and E, Weinan},
  doi = {10.1016/j.cpc.2018.03.016},
  url = {https://doi.org/10.1016/j.cpc.2018.03.016},
  year = 2018,
  month = {jul},
  publisher = {Elsevier {BV}},
  volume = 228,
  journal = {Comput. Phys. Commun.},
  title = {{DeePMD-kit: A deep learning package for many-body potential energy representation and molecular dynamics}},
  pages = {178--184}
}

CITE-CITE-CITE-CITE-CITE-CITE-CITE-CITE-CITE-CITE-CITE-CITE-CITE

Neighbor list info ...
  update every 10 steps, delay 0 steps, check no
  max neighbors/atom: 2000, page size: 100000
  master list distance cutoff = 8
  ghost atom cutoff = 8
  binsize = 4, bins = 7 6 5
  1 neighbor lists, perpetual/occasional/extra = 1 0 0
  (1) pair deepmd, perpetual
      attributes: full, newton on
      pair build: full/bin
      stencil: full/bin/3d
      bin: standard
Per MPI rank memory allocation (min/avg/max) = 7.699 | 7.699 | 7.699 Mbytes
Step Temp PotEng TotEng E_pair E_mol Press Lx Ly Lz Xy Xz Yz Volume Pxx Pyy Pzz Pxy Pxz Pyz 
       0          255   -178.42725   -145.23519   -178.42725            0    35988.795    18.399555    22.570389    19.505716            0    -6.792611            0    8100.4335    35524.775     36761.37    35680.241   -447.37001     1250.356    367.17926 
     500    251.68685   -165.44545   -132.68464   -165.44545            0    12820.098    18.024689    22.224223    19.255102 -0.027949468   -6.7478751 -0.0079586315    7713.2999    11519.487    13390.423    13550.384    -2725.094   -22.893051   -293.80794 
    1000    254.82726   -165.05745   -131.88787   -165.05745            0    7587.5798    18.070785    22.605416    19.487626 -0.025156524   -6.8606136    0.0159247    7960.6486    8763.8344    8003.7081    5995.1968    1958.4241   -154.76228   -386.58685 
    1500     254.5766   -165.91785    -132.7809   -165.91785            0    17082.003    18.045779    22.661237    19.358656 -0.015837071   -6.9116971 -0.0024870589    7916.5226     18197.55    14216.091    18832.368   -897.54801    2867.9659    1533.5175 
    2000    251.48925   -163.41688   -130.68179   -163.41688            0    2279.7354     18.03806    22.636185    19.261461 0.0097211945   -6.9503607 -0.051321934    7864.7021    5700.5345    3687.4144   -2548.7427   -775.30241   -809.54872    743.49465 
    2500    258.38821   -163.67056   -130.03747   -163.67056            0    7927.5321    18.150837    22.835783    19.328278  0.027322429   -7.0268035 -0.076390459    8011.3505    7662.3438    6914.9981    9205.2543    32.239513    942.30946    1947.2724 
    3000     262.9958   -163.46483   -129.23199   -163.46483            0    12680.627    17.967383    22.641979    19.172971  0.023052554   -6.9921796  0.014855279    7799.8927    11991.648    12810.239    13239.994    1896.9048     2881.189   -940.88949 
    3500    249.56506   -164.03946   -131.55483   -164.03946            0    -2646.155    18.099897     22.79941     19.33044  0.013858866   -7.0407038   0.18593258    7977.0337     -4930.56   -178.22472   -2829.6802    122.94619    -1419.474    -1052.061 
    4000    254.91005   -164.99641   -131.81605   -164.99641            0    6675.6239    18.113047    22.701853    19.271745 -0.035210051   -6.9888842   0.19727017    7924.5362    6803.5833    3952.1459    9271.1425    289.40359   -577.14202   -737.53689 
    4500    261.78455   -165.99726   -131.92208   -165.99726            0    6955.6303    18.073766     22.52378    19.271058  -0.10861851   -6.8800437  0.050601386    7845.0459    6890.5182    8398.6752    5577.6975    207.28425   -720.80825    1210.9197 
    5000    252.56935   -164.39499   -131.51931   -164.39499            0    3341.0294    18.132033    22.553832    19.455977 -0.091244344   -6.8232895  -0.14978229    7956.4599    5602.5183     1037.071    3383.4989    899.14802   -2439.1141    -2365.736 
    5500     246.8328   -164.49793   -132.36894   -164.49793            0    8131.0872    18.029097     22.45661    19.379447  0.034963451   -6.7411429  -0.13060101    7846.2031    10422.379    8122.0111    5848.8716    310.48142     237.7665    541.24341 
    6000    251.26582   -163.91731    -131.2113   -163.91731            0    7899.1057    18.085375     22.58144    19.366841   0.17356395   -6.7569184  0.086774077     7909.298    9910.0624    6906.2143    6881.0405   -2713.4488    220.59705    245.39032 
    6500    248.38524   -164.78313   -132.45207   -164.78313            0    6672.9649    18.039744     22.75513    19.184848   0.14475908   -6.7727267   0.26161305    7875.3175    7733.1723    4330.2529    7955.4696   -525.43073   -721.21505   -2638.0646 
    7000    258.41876   -163.77356   -130.13649   -163.77356            0    7583.0454    18.095878    22.961349    19.164858  -0.14037159   -6.8714904   0.14279779    7963.1091    9013.0948     7212.515    6523.5264    345.54236   -3774.8137   -2417.7838 
    7500    262.26158   -163.94214   -129.80487   -163.94214            0    4171.5617    18.028733    22.871872    19.197853  -0.47708398   -7.0007482  -0.16605046    7916.2514    81.710705    4479.6498    7953.3246    2281.2996    2696.6413    395.62523 
    8000    254.33598   -164.66496   -131.55933   -164.66496            0    4491.3231     17.99788    22.597891    19.358107  -0.36314861   -7.0747751  -0.18070407    7873.2159    3327.7685    6617.3248    3528.8759   -2061.1855   -1425.5352   -786.58802 
    8500    251.35352   -165.34568   -132.62825   -165.34568            0     225.3667    18.192137    22.432677    19.488224  0.031767407   -7.1468113  0.030860787    7953.1117   -4455.9718    2482.6887    2649.3832   -2572.5042    2180.4374    248.06275 
    9000    256.67759   -162.84843     -129.438   -162.84843            0    6760.5842    18.205531    22.313222    19.378333   0.33434943   -7.0535267   0.16437426    7871.9452    6812.2918    9747.3187    3722.1421   -2034.7455   -1184.6273   -1095.8983 
    9500    259.13834   -163.92497   -130.19424   -163.92497            0    4920.8906    18.198981    22.440814    19.399482   0.16980511   -6.9599778  0.073631399    7922.7477    4053.9604    4987.0926    5721.6189    682.13861    1664.5726    406.62167 
   10000    261.04466   -163.60624   -129.62737   -163.60624            0    5523.9515    18.080289    22.612136    19.485015  -0.10617515   -6.7948697  -0.03666383    7966.1355    7248.6767    4604.3993    4718.7786   -395.71919   -676.97504   -297.82851 
   10500    263.09648   -162.42991   -128.18397   -162.42991            0    4000.1731    17.917877    22.750336    19.373852  -0.24377831   -6.6240338 -0.015646665    7897.5129    5269.5684    1506.0748    5224.8759    3998.2752   -2754.4861     -840.213 
   11000    259.88515    -163.8316   -130.00366    -163.8316            0    7222.1286    18.055949    22.868462    19.227402  -0.23872554   -6.6767928    0.1064128    7939.2209    5895.7837    5871.0368    9899.5655    2897.9041    1976.2394   -897.28725 
   11500    251.50886   -163.59091   -130.85326   -163.59091            0    6477.6379    18.140937    22.789656    19.134093  0.054310107   -6.8400005   0.22618919    7910.5259    5462.1411     6818.229    7152.5435   -1518.9079   -2738.5141   -2062.9739 
   12000    259.20944   -163.29733   -129.55735   -163.29733            0    5364.0242    18.116205     22.58608    19.289277   0.27246383   -7.0534949   0.19085498    7892.6717    4478.8264    6040.6595    5572.5868    2284.9024    1883.5201    5316.6581 
   12500    261.48185   -163.33441   -129.29863   -163.33441            0    2132.0057    18.196384    22.462708    19.552773   0.26121657   -7.2686851 -0.080661978    7992.0014    1413.4595    5126.3774   -143.81966   -1013.0869    1079.8287   -1136.9416 
   13000    262.12024   -162.68317    -128.5643   -162.68317            0    5453.7683    18.216474    22.311239     19.45664  0.094402087   -7.2544113  -0.25587815    7907.8032     4672.152    5666.6656    6022.4872    -1250.615    1607.4941   -1942.2025 
   13500     249.1115   -163.61185   -131.18626   -163.61185            0    7294.9733    18.226391    22.453094    19.371491   0.02035933   -7.1189154 -0.099880141    7927.5669    6593.9643    9638.8252    5652.1304    1579.4748    1450.7344    578.57564 
   14000    247.84221   -164.50512   -132.24474   -164.50512            0     6103.824      18.1158    22.686966    19.329701  0.020422916   -6.8641888   0.22810674    7944.3627    5927.0316    3028.1133    9356.3271   -1187.7598   -736.34056    442.42313 
   14500    254.33779    -165.8444   -132.73853    -165.8444            0    7241.6035    17.894031    22.830565    19.254351 -0.068231001   -6.6089014   0.36609711    7865.9963    9387.4815    5487.4915    6849.8375    1376.3983   -240.93278   -180.93828 
   15000     262.5691   -164.48129   -130.30399   -164.48129            0    3287.9517    17.933562    22.905219    19.387891  -0.21580397   -6.5664877   0.17326263    7964.0061    1536.0033    3061.4317      5266.42    2718.1701   -837.43918   -179.02454 
   15500    249.40348   -162.94262   -130.47902   -162.94262            0     7128.377    18.012308    22.627637     19.30054  -0.22846076   -6.6772363  -0.11007531    7866.4363    9112.3318    7300.0517    4972.7473   -1830.8837    2515.4243   -2895.0044 
   16000    248.23761   -162.65446   -130.34262   -162.65446            0     2190.942    18.214079     22.51758    19.393451  -0.06125393   -6.8575326  -0.24572774    7953.9714    3474.3531    749.72661    2348.7464    -518.3936    -474.5835   -808.89953 
   16500     255.1605    -163.1629   -129.94994    -163.1629            0    4862.8802     18.10383    22.408724    19.489155   0.16299688   -6.9700142  -0.12334168    7906.4332    4180.1436    7209.9538    3198.5431   -1399.5923    467.34821    1031.9223 
   17000    252.87624   -163.20522   -130.28959   -163.20522            0    8810.7096    18.062319    22.499272    19.513028   0.22529479   -7.0183264    0.1181848    7929.8806    11610.511     6878.781    7942.8369   -120.36356   -1988.6115   -1495.7953 
   17500    254.09914   -164.03327   -130.95847   -164.03327            0    4186.5434    18.145475    22.549928    19.381882  0.094027159   -7.0096004   0.20840095    7930.6619    5112.0879    5435.0532    2012.4891   -1013.3515    2161.6748    801.99333 
   18000    246.32422   -164.33951   -132.27672   -164.33951            0    9131.1501     18.13164    22.714342    19.197354  -0.17797552   -6.8501031   0.15656664    7906.3968    9400.4163     7610.319    10382.715    595.94928    167.62425   -835.52827 
   18500    248.38179   -164.39767   -132.06706   -164.39767            0    7718.3579    18.062511     22.80082    19.180834  -0.39884602   -6.7105232   0.05263263    7899.4359    4462.1643    9221.6157    9471.2937    178.69582    3312.8175   -1520.6174 
   19000    253.69559   -164.47337   -131.45109   -164.47337            0    1785.0574    17.922482    22.958546    19.316451  -0.42316578   -6.5462312  0.051527607    7948.2199    983.29192    4033.8586    338.02164    56.278439    410.77049    2628.4903 
   19500    254.14036   -163.73875   -130.65858   -163.73875            0    7153.0395    17.816541    22.928141    19.463452   -0.1890942   -6.4141532   0.13131144    7950.8233    10389.605     5977.394    5092.1192   -1402.2609   -1503.7609   -3594.5607 
   20000    250.71031   -164.69705   -132.06335   -164.69705            0    9702.6139    17.907172    22.650205    19.356258   0.28597172   -6.4680493   0.18951497    7850.9201    7679.4595    12163.846    9264.5363   -1153.0249    -583.4191   -1978.5183 
   20500     249.9295   -164.13782   -131.60575   -164.13782            0    2109.9871    18.237952    22.532567    19.279437   0.52510706   -6.7258841   0.07881402    7922.8437   -921.81753     3740.127     3511.652   -4375.6677   -1445.0521   -2501.5658 
   21000    249.59161   -163.93895   -131.45087   -163.93895            0    4834.6619    18.301258    22.499073    19.295964   0.35678635   -6.9605281  -0.17204302    7945.3325    3272.3941    6364.9315      4866.66   -2380.3113   -243.66121    679.74689 
   21500    250.93803   -165.85166   -133.18832   -165.85166            0    6501.8592    18.082591    22.460004    19.401281 0.0059170959   -7.0838356   -0.2328065    7879.5405    7930.9795    6741.2471    4833.3511   -2140.1707    269.76538    695.26475 
   22000    248.57108    -163.7863   -131.43105    -163.7863            0    2875.4933    18.049473    22.594272    19.470913  -0.25586597   -7.1781948 -0.056552367    7940.5245    3982.2025    2084.6796    2559.5979    1144.0925     1800.138    1224.0778 
   22500    257.15036   -164.32144   -130.84947   -164.32144            0    7676.8987      18.0522    22.671857    19.345543  -0.30516344   -7.1242201   0.19763616    7917.6839    7491.6776    9467.0293     6071.989    2376.6251   -434.90742    219.16282 
   23000    247.37263   -164.62772   -132.42847   -164.62772            0    6205.4395    18.096261     22.80059    19.157325  -0.17707898   -7.0627485   0.28226764    7904.4162    7547.0082    3681.0923    7388.2179   -209.16479   -1757.0702   -2809.0376 
   23500    244.68557   -162.97322   -131.12374   -162.97322            0    5446.5905    18.104542    22.823914    19.233036 -0.049531069   -7.0055488  0.078142086    7947.4079    5223.2489    7141.6375    3974.8851    139.31872   -458.19637   -1153.5289 
   24000    267.43636   -163.49763   -128.68679   -163.49763            0    5811.4075    17.987501     22.68761    19.292764   0.13225797   -6.8467407  -0.14202589    7873.2496    8297.0779    4649.5682    4487.5764   -561.41903   -559.30158    2395.2854 
   24500    260.68482   -164.17391   -130.24188   -164.17391            0    4762.5688    18.101378    22.611178    19.522415   0.28838989   -6.7374663  -0.18984757    7990.3971    2442.6294    7209.4314    4635.6455   -1553.0661    1164.4319    3932.5542 
   25000    259.44346    -163.1853   -129.41485    -163.1853            0    7952.3501    18.088479    22.367661    19.449317   0.20548104   -6.5901379 -0.052619463    7869.1347     10432.45    5638.5638    7786.0365   -1740.2754    -707.0001   -777.74965 
   25500    252.19845   -162.38274   -129.55534   -162.38274            0    5669.7899     18.28053    22.440757    19.465364  -0.08705351   -6.5307743   0.01282551    7985.2554    253.36578    7510.0389     9245.965   -585.54437    263.51613    969.23133 
   26000    260.68731   -162.86679   -128.93443   -162.86679            0     7883.662    18.157858    22.474784    19.309399  -0.33406638    -6.514314  0.052903181    7880.0486    3800.0254    8138.7807     11712.18   -1655.1081    868.53179   -1114.7446 
   26500    250.20948   -163.96375   -131.39524   -163.96375            0    9044.7158    17.998021    22.787761     19.34017  -0.39929125   -6.6371825   0.19730442    7932.0731    9026.1739    9432.0493     8675.924   -1177.5711   -976.03873   -855.36466 
   27000    261.68694   -162.78062   -128.71815   -162.78062            0    5135.7686    17.953936     22.93484    19.314987  -0.25175912   -6.9460484    0.3145408    7953.3445     6291.977    5486.6681    3628.6606    1812.7415   -1379.0628    2325.2991 
   27500    253.72588   -163.27094   -130.24472   -163.27094            0    6676.5993    17.960788    22.899047    19.145391  -0.01213632   -7.1899405   0.23327232    7874.2104    8410.6711    3588.0944    8031.0325   -835.04558    553.87335   -2339.9899 
   28000    252.03057   -164.67097   -131.86542   -164.67097            0    8896.0066    18.153641    22.783018    19.237262   0.10571062   -7.2943487 -0.026665833    7956.4304     8583.738    7842.4968    10261.785    248.66993    4650.6357   -247.14806 
   28500    257.10027   -163.77786   -130.31241   -163.77786            0    9199.1735    18.136341    22.542229    19.315186   0.12264074   -7.1443957  -0.22915901    7896.6962    10204.794    8953.1148     8439.612   -597.94804   -485.39705    2194.2857 
   29000    251.82438   -164.10911    -131.3304   -164.10911            0    4407.6033     18.14961    22.539111    19.372879   0.14260856   -6.9861034 -0.099481804     7924.981    4502.0886    3841.9441    4878.7772    902.75317    685.71617   -1439.0629 
   29500    248.99987   -161.35515   -128.94409   -161.35515            0    9481.8241    18.101053    22.555916    19.416793   0.11994393   -6.8605421  0.062063426    7927.6013    6376.8633    12154.853    9913.7557    2077.4068   -2550.1267   -1936.8217 
   30000    271.74738   -162.87424   -127.50226   -162.87424            0    3101.5591     18.01325    22.662891    19.446141  0.090524064   -6.7854128  0.073098844    7938.5433    4268.2466    2406.8001    2629.6305    1037.0507   -138.56645   -3836.9303 
   30500    255.45586   -163.09333   -129.84193   -163.09333            0    7395.1872    18.047351     22.74231    19.394556  0.020159774   -6.7697505 0.0084813277    7960.2714     8129.959    8891.3349    5164.2678    1158.6819   -1226.4697    1062.4022 
   31000    259.79943    -162.5527   -128.73592    -162.5527            0    5571.8607    18.155104    22.699445    19.239675  -0.15150948   -6.8714908 -0.042921098    7928.8778    3765.5601    4645.2811    8304.7408    1222.9751   -799.29029    1093.7423 
   31500    258.11514   -163.33739   -129.73984   -163.33739            0    2693.5514    18.139123    22.713765    19.218743  -0.36926549   -6.9978246 -0.020951458    7918.2718    3032.6831    460.81478    4587.1565    4889.6706   -2648.9073    291.24422 
   32000    258.55081   -164.60391   -130.94966   -164.60391            0    7231.7715    17.970218    22.579457    19.489462  -0.43632939   -7.1394949   0.22199796    7908.0005    8728.4983    6443.1237    6523.6925    897.50974   -797.53209    1469.5125 
   32500    249.82976   -162.88126   -130.36217   -162.88126            0    3489.8193    18.009392    22.497359    19.589661  -0.22066215   -7.1849322   0.45167674    7937.0211    6121.2324    2724.3007    1623.9247    864.67566    668.06287    415.24971 
   33000    263.25353   -163.96793   -129.70154   -163.96793            0    5322.7796    18.192017    22.475817    19.422952  0.064909696   -7.1349298   0.33337465    7941.6652    3851.4092    5455.8501    6661.0793   -1064.4544    333.56534   -1419.1396 
   33500    250.67329   -163.72696   -131.09808   -163.72696            0    8153.5268     18.24946    22.529803    19.180928   0.19048281   -6.9694992 -0.055714313     7886.368    7809.1406    8395.0917    8256.3482   -855.08495    1378.9489    1716.2543 
   34000    249.74463   -165.29574   -132.78774   -165.29574            0    3296.1396    18.127982    22.710285    19.259471   0.14166422   -6.7861378  -0.29509476    7928.9634    2237.8502    4151.5751    3498.9935    139.85546   -1680.0732    2907.2153 
   34500    245.40281   -165.24669   -133.30384   -165.24669            0     5980.843    17.919905    22.778215    19.363354  0.088285776    -6.655049   -0.1908276    7903.8005    6176.6319    5669.8413    6096.0558     -906.607    541.69921    11.354946 
   35000    245.35159   -165.74992   -133.81373   -165.74992            0    6421.6752    17.861311    22.798561    19.366968  0.058882756   -6.6176463   0.12502836    7886.4656    10154.927    7526.9065    1583.1922    -1472.683    602.59407   -462.72991 
   35500    251.34022   -164.61132   -131.89563   -164.61132            0    4761.0876    18.084705    22.774851    19.317401 -0.032404481   -6.7576036   0.25702324    7956.3826    3798.3617    4242.2946    6242.6066    353.13103    743.65122    1474.1998 
   36000    257.82609    -164.8596   -131.29967    -164.8596            0    6190.1923    18.195255    22.519277    19.196131   -0.2019506   -6.8714229    0.1828575    7865.4991    5978.4221    6775.1925    5816.9621    3041.6019    87.756633    3124.0256 
   36500    256.90454   -164.16815   -130.72818   -164.16815            0    7304.0201    18.176183    22.469704    19.380165  -0.30252809   -6.9660659 -0.020749204    7915.1199    6974.6544    7741.1357    7196.2701   -1053.9886    -22.99704   -504.49744 
   37000    249.54451   -163.68097   -131.19902   -163.68097            0    6978.1734    18.049577    22.446688    19.556576  -0.12209964   -7.0244197  -0.15295333    7923.4099    6967.7111    7473.4743    6493.3347    694.78781    1545.5578    687.89115 
   37500    254.02859   -164.39414   -131.32852   -164.39414            0    2362.8153    17.966642    22.556591    19.509739   0.27702823   -6.9859901  -0.10428143    7906.6377    3754.8448    1241.9711      2091.63   -1465.3124    617.81513    2298.7098 
   38000    256.85997   -162.99224   -129.55807   -162.99224            0    4869.6232     18.08044    22.740469    19.245407   0.49157616   -6.9479224 -0.031300136    7912.8969     7008.429    4187.2452    3413.1955    2008.0559   -1662.4929   -1221.1559 
   38500    253.55824   -163.10147   -130.09707   -163.10147            0      6392.76    18.150044    22.908516    19.061363   0.25722339   -6.8604322 -0.050448234     7925.535    1581.0788    6191.8844    11405.317   -366.28198    2650.5389    838.16038 
   39000    248.44821   -164.44382   -132.10457   -164.44382            0    5998.9037    18.057658    22.871185    19.134654  -0.25815424   -6.7520822  0.010416734    7902.6127    7279.4348    4978.5227    5738.7537   -2054.7602   -1786.8563   -2060.9055 
   39500    254.69291   -163.31164   -130.15955   -163.31164            0    4350.0245    17.957232    22.745685    19.385084  -0.45771542   -6.7362594  0.093028723    7917.8283    6504.6371    3852.9155    2692.5208    1588.9389    2266.0165     3725.438 
   40000    258.51968   -164.94109   -131.29088   -164.94109            0    7208.4784    18.037348    22.649819     19.44969  -0.30560452   -6.7687931    0.2066889    7946.0282    5418.1076    9455.8966    6751.4309    385.36352    674.77378   -1899.8827 
   40500    259.25366   -165.25918   -131.51344   -165.25918            0    7271.0379    18.098069    22.512838    19.324789  -0.11034989   -6.7971185   0.21863926    7873.6706    5628.1515    8737.9808    7446.9814    290.81752   -1024.2424    1712.8679 
   41000    246.21242   -164.40076   -132.35252   -164.40076            0    5497.3207     18.23655    22.605131    19.329592  0.014320567   -6.8693308  0.050782232    7968.4234    3168.5296    6750.1493    6573.2831    411.86388    505.81978    -2817.745 
   41500    259.45674   -164.25548    -130.4833   -164.25548            0     8858.457     18.12226    22.501572    19.283715  0.047010129   -6.8789768  -0.18731476    7863.5005    10539.684    8556.6618     7479.025   -1549.9885    1828.9745    88.521723 
   42000    249.13933   -163.48428   -131.05507   -163.48428            0    4299.9739    18.125589    22.548493    19.438797    0.0270825   -6.9124309   -0.1678652    7944.7281    1659.1569    6925.1052    4315.6595   -1572.8899   -2006.0787    2901.3698 
   42500    246.78389   -162.46718   -130.34456   -162.46718            0     8897.016    18.114244    22.629688    19.405621  0.034514002   -6.9229355   0.14788798    7954.7457    6927.3277    11687.856    8075.8642   -723.00354    5252.9415     471.1785 
   43000    253.76381   -162.87218   -129.84102   -162.87218            0    7533.3661    18.063107    22.658014    19.243628 -0.011491028   -6.8835534   0.40518426    7875.9193    6810.0774    7338.5347    8451.4862   -2450.9544    1812.9405   -789.45574 
   43500    254.60719   -163.58924   -130.44831   -163.58924            0    7798.2389    18.089037    22.800278    19.305905  -0.26448547   -6.8627384   0.33528584    7962.4323    6442.3794    8695.6931    8256.6443    503.51998    1704.2462    -1224.774 
   44000    263.99401   -165.31197    -130.9492   -165.31197            0    8111.7543    17.944036    22.738154    19.298544  -0.37940826   -6.7735447 -0.052989068     7874.081    9418.3175    7588.6234     7328.322      2371.29     1404.975   -1706.4122 
   44500    259.88908   -164.66952   -130.84107   -164.66952            0    6647.0059    18.124714    22.620476    19.379031  -0.18923668   -6.7948902  -0.34064329    7945.2024    2514.0781    9048.1178    8378.8218   -2867.3993   -149.27685    850.46036 
   45000    240.69341   -164.26841   -132.93856   -164.26841            0    6007.7802    18.189442     22.44786    19.399521   0.19250405   -6.7845229  -0.20003224     7921.097    4030.8792    5836.6466    8155.8146    1395.6974   -1013.9195    1119.0886 
   45500    254.85507   -165.46991   -132.29671   -165.46991            0    1557.2489    18.124522     22.34891    19.419444   0.49873762   -6.7771146  0.096472475     7866.104   -1453.3415    1710.2156    4414.8725   -1362.1023   -1552.8318    2059.0256 
   46000    252.30638   -164.50608   -131.66463   -164.50608            0    5099.5982    18.129971     22.51938    19.446603   0.32637201   -6.8477138   0.19178751    7939.5755    7901.0541    3975.3715    3422.3689   -835.41808   -942.45182   -2835.0125 
   46500    251.56111   -164.19259   -131.44814   -164.19259            0    5714.7902    18.009928    22.716681    19.355092  -0.18951211   -6.9037766  0.061367183     7918.667    4539.6669    6360.3421    6244.3615    247.77083    486.13725   -1628.3351 
   47000    250.94654   -163.56325    -130.8988   -163.56325            0    3211.2125    18.034132    22.787118     19.22069  -0.47012507    -6.986607 -0.014389253    7898.6636    3765.9728    1995.3448    3872.3199   -777.12255   -2863.7256    67.241459 
   47500    263.38168   -163.85087    -129.5678   -163.85087            0    5042.9672    18.106078    22.768319    19.263795  -0.33485597   -7.0403672  0.036789332    7941.4025    3664.0104    7262.7507    4202.1406    1829.0499    2292.4041   -440.61441 
   48000    255.09849    -163.6023   -130.39741    -163.6023            0    7441.3404    18.047471    22.717554    19.336554  0.026941457    -6.995652  0.091596876    7927.8788    7819.4134    8927.4594    5577.1484   -1095.0573    731.23322   -611.49334 
   48500    253.43729   -163.61524   -130.62658   -163.61524            0      9706.73    18.059258    22.536176    19.404786   0.26918183   -6.9731544  0.055540964    7897.4882    9182.5925    11783.344    8154.2533    920.71029    852.95045   -1013.7851 
   49000    257.79216    -162.7834   -129.22789    -162.7834            0    4315.1324    18.091012     22.53352     19.48435   0.24251659   -6.9427628 -0.054105342    7942.8763     2327.502    3489.7398    7128.1554   -848.35576    159.08585    3049.8854 
   49500    276.56692   -161.60911   -125.60979   -161.60911            0    5004.4843    18.111197    22.533968    19.436542 -0.038058465   -6.8309833 -0.095802608    7932.3858     6474.106    7231.7234    1307.6236    970.66198   -177.64744    -512.7575 
   50000    258.65983   -162.16301   -128.49456   -162.16301            0    6551.2442    18.171658    22.566482    19.300619   -0.4655489   -6.7075046  0.035531241    7914.6124     3975.191     6845.853    8832.6887   -754.77069   -530.58529    902.51279 
   50500    249.80916   -163.38988   -130.87348   -163.38988            0    2990.2043     18.08525    22.735475    19.300274  -0.63153608   -6.5976079   0.33963922    7935.8239    6210.8849    2391.6157    368.11216    1642.5649   -510.74644   -2136.0144 
   51000    253.71361    -162.5399   -129.51527    -162.5399            0    5449.6459    17.913343    22.725982    19.424656  -0.41799704   -6.5902655   0.44193535    7907.7445    5767.7397    5329.3839    5251.8143    485.26257   -189.99334    1064.0734 
   51500    254.29148   -163.81047   -130.71063   -163.81047            0    5395.2615    17.891065    22.702227    19.553495  0.016129316   -6.6823792   0.24128216    7941.9845    5924.0686    4381.3751     5880.341   -3677.7135    359.60594   -993.13813 
   52000    247.22172   -164.65957   -132.47996   -164.65957            0    8899.4151    18.014715     22.56562    19.399449   0.34492999   -6.8542483  -0.11681077    7886.1321    7799.2038    10329.824    8569.2176   -2852.2034    823.48561    543.28974 
   52500    267.48694   -164.25198   -129.43456   -164.25198            0     4984.476    18.177876    22.586002    19.351002   0.34427587   -6.9810941  -0.30255456    7944.8547    3167.8474    4411.6053    7373.9753   -2910.4724   -721.16856    1172.5718 
   53000     261.8577   -165.07429   -130.98959   -165.07429            0    3455.1038    18.147736    22.655091    19.315958   0.17406305   -6.9875574   -0.2333966     7941.536    2523.7569     5903.688    1937.8665   -854.10284    609.70627    2171.5444 
   53500     258.5267   -164.30038   -130.64926   -164.30038            0    8599.5232    18.023013    22.658259    19.260207 -0.046348991   -6.8918776  0.075459125    7865.2927    8397.2776    8563.8137    8837.4784   -155.32619    84.611928   -3648.4567 
   54000    262.62077   -164.18732    -130.0033   -164.18732            0    5944.4426    17.972916    22.872549    19.342662  -0.20364292   -6.8324061   0.32484942    7951.5054    7777.8729    2611.6031    7443.8516    1381.6384   -1371.5814   -279.81972 
   54500    250.58007   -165.40691   -132.79016   -165.40691            0    4266.7012    18.035471    22.777792    19.368873  -0.31133294   -6.8284382   0.27927533     7956.892    7332.4585    1467.5083    4000.1369    966.66904   -2736.0228   -1024.4777 
   55000    261.00937   -165.13932   -131.16504   -165.13932            0    7691.2403    18.076158     22.43697    19.303843  -0.30674304   -6.8560409   0.06200827    7829.1405    7935.3044    9106.6481    6031.7684    1831.3842    757.04265    92.094964 
   55500    252.62907   -166.08736    -133.2039   -166.08736            0    6529.6102    18.349687    22.524672    19.482229 -0.089049414    -6.929071 -0.082112617    8052.4082    6422.7241    4633.0832    8533.0231   -14.392045   -28.153225    -127.9589 
   56000    264.74714   -163.09889   -128.63809   -163.09889            0    9537.8441    18.153328    22.289947    19.338681   0.16194918   -6.8390768 -0.076356363    7825.1405    8737.3121    10950.238    8925.9821    1063.9639     1231.368   -958.87169 
   56500    245.07283   -162.39217   -130.49227   -162.39217            0    3461.5202    18.188271    22.590974    19.457126   0.34056312   -6.8503053 0.0054292579    7994.7532    2025.4138    3492.9078    4866.2389   -1477.5757     1587.093    1638.8884 
   57000    260.26849   -163.85006   -129.97222   -163.85006            0    5072.4606    18.077374     22.75256     19.30117   0.24138208    -6.828549  0.017541795    7938.6973      5169.23    4075.7918      5972.36   -462.19256    312.26696    70.386603 
   57500    256.02721   -163.97606   -130.65029   -163.97606            0    7664.6287    18.045765    22.685587    19.164728 -0.012910771   -6.8846203  -0.01999277    7845.6328    6134.6517    5314.6093    11544.625   -145.52448   -3266.7121    -466.6571 
   58000    248.71674   -163.31651   -130.94231   -163.31651            0    5204.2241    18.151346    22.747564    19.357677   -0.1914011   -7.0144544  0.031922279    7992.7637    1887.0364    4801.5638     8924.072    1535.5204   -3111.9222     2990.041 
   58500     265.5255   -164.95038   -130.38826   -164.95038            0    8353.7519    18.051102    22.520359    19.348307  -0.18497824   -7.0244159   0.18248119    7865.4216    9922.5452    9214.0301    5924.6806    718.00081    1012.9634    1545.3666 
   59000    259.73674   -164.02456   -130.21594   -164.02456            0    7720.5526    18.141088    22.627776    19.419118  -0.05752444   -6.9908539   0.25174972    7971.4016    7341.7661    7728.1015    8091.7903   -1216.2626   -960.01343    3610.9224 
   59500    260.39371   -163.47721   -129.58307   -163.47721            0    8407.3329    18.171809    22.626355    19.353185  0.034248452   -6.8177876   0.14015319    7957.2906    12053.316    7894.9402    5273.7426   -312.91428    1608.1541    11.984231 
   60000     254.6717   -164.55632   -131.40698   -164.55632            0     8102.713    18.046911    22.480065      19.2655    0.1305071   -6.5945269 -0.099447024    7815.9313    5716.8541    9761.5204    8829.7643   -1053.1617   -1278.3976    -87.16552 
   60500    244.18451   -163.76104   -131.97677   -163.76104            0    4467.8085    18.158569    22.698659    19.529882   0.26670103   -6.5907732  -0.23617783    8049.7321    6423.2761    5640.9024    1339.2472    1104.3662    -552.1526    775.10701 
   61000    252.41611   -163.22303   -130.36729   -163.22303            0    8470.8054    17.946238    22.515813    19.348676   0.30831266   -6.5757995  -0.15759126    7818.2996    4958.1129     12356.17    8098.1332   -3919.4773    918.96795   -942.56953 
   61500    247.89647   -163.38216   -131.11472   -163.38216            0    3340.0262    18.041697    22.767447    19.391038    0.1786065   -6.7264377   0.10444318    7965.1285     4130.504    404.63236    5484.9422   -633.13036   -1074.5945   -2718.7561 
   62000    256.98356    -163.0601   -129.60985    -163.0601            0    2514.6455    18.045276    22.746252    19.308125 -0.081866605     -6.89753   0.23707677     7925.259    1428.4366    1838.3452    4277.1546    -75.42965   -2699.8993   -1892.6017 
   62500    256.79818   -164.37657   -130.95044   -164.37657            0    4932.5486    18.054969    22.734692    19.216045  -0.38265055   -7.0037886     0.178493    7887.6901     499.7936    6427.1603    7870.6919    1318.3361    2547.1698    1858.7337 
   63000    259.34106   -162.00786   -128.25074   -162.00786            0    3765.1038    18.200727    22.711459     19.35068  -0.43135725   -7.1495926  0.033821543     7998.895    2270.5212    2335.9674    6688.8229    2499.9755     1849.237    836.18044 
   63500     251.2431   -162.90306   -130.20001   -162.90306            0     7331.565    18.017769     22.47846    19.401086  -0.11993126   -7.1094151  0.026064702    7857.6666    9290.6954    7574.2001    5129.7996   -629.89375    567.28069   -353.69418 
   64000    257.13663   -164.00527   -130.53509   -164.00527            0    5942.6608    18.114003    22.489774    19.584889   0.25112639   -7.0846654  0.018592765    7978.4891     9724.405    414.16241    7689.4151   -35.290862   -321.26109    17.436423 
   64500     260.7372   -164.53594   -130.59709   -164.53594            0    8770.8475    18.113941    22.459912    19.461383    0.3720103   -6.9518786 -0.033552245    7917.6206    9471.3455    7353.3245    9487.8724    84.730133    99.181775    1760.7221 
   65000    243.69546   -164.85716   -133.13655   -164.85716            0    5036.7188    18.087353    22.551609    19.314976   0.21813124   -6.8353955 -0.080278007    7878.5576    4241.4459    4464.9904    6403.7202   -2022.0209    1115.7656   -745.82107 
   65500    247.11259   -164.15776   -131.99236   -164.15776            0    970.67725    18.110392    22.736794     19.36082 -0.057968364   -6.8072594  -0.09308996    7972.2487    3696.7719   -1233.4032    448.66301   -169.29211   -2666.6086    2081.1843 
   66000    264.59197   -163.27029   -128.82968   -163.27029            0     5216.314    17.931205    22.794156    19.233301  -0.27986963    -6.754487   0.03035046    7861.1632    8006.1629    3390.1778    4252.6012    1412.5139    -558.2802    2245.0485 
   66500    262.25126   -163.37971   -129.24378   -163.37971            0    5433.4237    17.986952    22.932769    19.372681  -0.24982937   -6.7971234   0.23074145    7991.0487    5808.7732    6677.8011    3813.6967    3179.7226   -1050.5169   -2800.0067 
   67000    247.56453   -163.57175   -131.34752   -163.57175            0    2999.7008    17.898939    22.718146     19.31707 0.0039076794   -6.7733644   0.26328873     7854.914    5777.4539    480.10216    2741.5462   -1104.5564    638.11396    580.23417 
   67500    251.36064   -164.15627   -131.43792   -164.15627            0    6297.2296    18.211054    22.582925    19.398396   0.30875083   -6.8393332  0.065163952    7977.7625    6631.3787    5215.1562    7045.1539   -1073.0741    1765.0277   -1557.6222 
   68000    258.79506   -165.08678   -131.40073   -165.08678            0     8107.625     18.32386    22.292761    19.431533   0.35996371   -6.8597626   -0.2222079    7937.5759    8247.7028    8645.0478    7430.1243   -337.76918   -1017.4805   -1387.5687 
   68500    250.15312   -162.48366   -129.92249   -162.48366            0     5931.777    18.147393    22.346345     19.42594     0.207883   -6.8204471  -0.28095732    7877.7606    9379.2258    5670.2666    2745.8385    3087.1102   -1973.5519     2952.869 
   69000    247.47697   -164.35461   -132.14178   -164.35461            0    3851.1818    18.051523    22.665335    19.497706  0.076330493   -6.8534586  -0.12555939    7977.3661     4474.235    4614.0193    2465.2912    959.76195   -915.14808   -491.74772 
   69500    248.38359   -164.46055   -132.12971   -164.46055            0    5643.6462    17.906588    22.730672    19.321955 -0.091899536    -6.812526   0.10661496    7864.5918    7029.5657    5717.0208    4184.3519    1950.3174   -1192.4407   -1194.1799 
   70000    242.39068   -163.32812   -131.77735   -163.32812            0    3395.9148    18.017451    22.854099     19.23633  -0.17466342   -6.8610714   0.15012845    7920.9937    2196.8373    6277.5322    1713.3749    4284.0195    1422.8715    865.09922 
   70500    249.01418   -164.51298   -132.10006   -164.51298            0    2565.6276    18.137585     22.71745    19.236933  -0.20450733   -6.9281253      0.07813    7926.3795    2695.1417    1225.7812    3775.9599   -240.96331   -1336.7411   -775.47458 
   71000    251.21123   -164.36656   -131.66766   -164.36656            0    6120.0964    18.050825    22.529288    19.297591  -0.16658676   -6.9367048 -0.044834056    7847.7941    7209.4615    6886.6393    4264.1883    58.525544    1408.8932    1179.8146 
   71500    249.21326   -164.02424   -131.58541   -164.02424            0    1314.1979     18.10922    22.557778    19.557403 -0.015278448   -6.9518043 -0.054538841    7989.2727    1817.7402    2467.4904   -342.63699    946.42428    397.10825    327.11345 
   72000     265.4482   -162.40185    -127.8498   -162.40185            0     9101.127    18.071833    22.389388    19.476517   0.25843751   -6.8852114  0.045988335    7880.5357      4698.66    12874.327    9730.3942   -933.45244    1019.8456    90.202752 
   72500    248.88371   -163.39991   -131.00397   -163.39991            0     5271.361    18.177784    22.674748    19.253696   0.31100437   -6.6927626   0.11184401    7935.9242     6088.264    5780.4611     3945.358   -1898.8778   -2146.8725   -1689.1888 
   73000    248.86683    -164.0674   -131.67366    -164.0674            0    5368.8839    18.172271    22.936564    18.954932  0.037731496   -6.4959494 -0.019492132    7900.5948    1671.8952    4533.7278    9901.0288    743.06718    891.48301   -1154.9024 
   73500    258.46921   -164.04188   -130.39825   -164.04188            0    9190.3586      17.9341    23.062666    19.030922  -0.23958873   -6.3393133  -0.16228217    7871.3448    9906.5494    8493.9032    9170.6231   -981.09354   -1345.3787    1272.5416 
   74000    252.54855   -164.30383   -131.43086   -164.30383            0    7806.7032    17.765756    23.083613    19.416402  -0.26805594   -6.3876543 -0.063764267    7962.6245    7966.3286    6344.9815    9108.7994    553.36662   -315.29712   -965.21801 
   74500    243.74218   -162.78889    -131.0622   -162.78889            0    9301.4906    17.820448    22.796499    19.462945  -0.12412778   -6.5323792   0.11157043    7906.7015    8962.5356    11150.528    7791.4085   -219.69456   -750.22992   -758.63236 
   75000    266.09211    -164.5003   -129.86443    -164.5003            0    4329.7728    18.026531     22.72177    19.323211  -0.03662224   -6.7196726   0.11874164    7914.6844    5454.4672    3371.8395    4163.0116   -790.51176   -1930.1321   -3054.2306 
   75500     255.6914   -165.96672   -132.68466   -165.96672            0    4599.1179    18.225693    22.624056    19.297063 -0.049381339   -6.9521967  0.031439446    7956.9337    1981.8247    6758.7236    5056.8053   -2975.7427    984.81516   -2240.6507 
   76000     258.6807   -164.39428   -130.72311   -164.39428            0    9549.1551    18.122413    22.569265    19.316701 -0.038495474   -7.0202474 -0.021792395    7900.7146     6148.677    9551.1446    12947.644      2427.65    572.84181    3462.6442 
   76500    243.78153     -166.323   -134.59118     -166.323            0    5069.5344    18.070739    22.652984     19.40469  -0.02240343   -7.0384379  0.049444753    7943.4297    4917.1519    6684.3905    3607.0607     541.4426     105.6413     362.6263 
   77000    244.83707   -165.88041    -134.0112   -165.88041            0    6300.7192    17.981722    22.697036    19.148874 -0.010018929   -6.9246753   0.16705454     7815.264    4827.0329    5321.2219    8753.9028   -1091.9204   -244.36816   -1778.5833 
   77500    245.57016   -163.52706   -131.56242   -163.52706            0    2481.9618    18.178608    23.030847    19.160533  0.039861145    -6.832604   0.15097494    8021.9163    2509.0387    2337.1125    2599.7343    1334.0878   -1577.6801   -136.77234 
   78000    269.86519    -163.0016   -127.87461    -163.0016            0     3944.072    17.964026    22.811741    19.254014   0.12971278   -6.6062517  0.056852943    7890.1162    6403.6897    1376.0016    4052.5247   -169.69498   -394.59181    -289.9096 
   78500    252.41485   -165.08872   -132.23315   -165.08872            0    6954.8839    17.851643    22.632656    19.519112   0.10568547   -6.4895976   -0.0566817    7886.3083    8751.6234    8041.4647    4071.5638   -172.14019   -82.672644    1705.6819 
   79000    248.40723   -164.43669   -132.10277   -164.43669            0    3150.0633     18.08221    22.596074    19.618476  0.045898806   -6.5498984  -0.11438725    8015.8535    3865.9092    4611.8345    972.44626    2530.3704    1300.1613    3205.8987 
   79500     257.8577   -163.64506   -130.08103   -163.64506            0    5008.5204    18.197518    22.289782    19.281864 -0.014478398   -6.6875553 -0.025400253    7821.0845    3831.5771    7702.8135    3491.1706    2992.5845    1292.6093   -679.42933 
   80000    252.78251   -163.00008   -130.09666   -163.00008            0     6197.608    18.381233    22.476212    19.292448 -0.067065709   -6.9458593  0.077342196    7970.4913     3348.301    7077.7815    8166.7416    1856.0272   -962.29646   -1028.4935 
   80500     249.7551   -162.77429   -130.26492   -162.77429            0    5862.2435    18.207573     22.56119    19.355244  -0.13464836   -7.1035013   0.15937338    7950.8346    3393.6256     7782.745    6410.3598    1177.2651     1839.696   -1608.1895 
   81000    252.88873   -163.54432   -130.62707   -163.54432            0    8345.5059    17.885717    22.689425    19.402324   -0.2277788   -7.0426102  0.085164732    7873.7858    10042.034    6960.3233    8034.1606    2160.2725    237.16816    90.847748 
   81500    251.37208    -164.6647   -131.94486    -164.6647            0    7259.6647    17.894081    22.841463    19.452076  -0.10271689   -6.9973586 -0.022997478    7950.5885     13260.93    5673.5311    2844.5327   -528.15179   -410.42704    1575.2919 
   82000    247.62243   -164.22765   -131.99588   -164.22765            0    5400.7819    18.060193    22.842221    19.196494  0.098305098   -6.9597663 -0.054476091    7919.2242    5830.0541    2296.2163    8076.0752    762.55847    155.96181    390.45744 
   82500    266.93743   -163.16979   -128.42389   -163.16979            0    5710.8693    18.195068    22.695368    19.112863   0.23928412   -6.8930946 -0.0095323601    7892.5374    5983.4474    7049.2698    4099.8906   -2125.5189    -316.6952   -1298.6521 
   83000     247.2618   -162.81289   -130.62807   -162.81289            0    6169.7516    18.224708    22.577252     19.46077   0.19541515   -6.8451974  0.014247034    8007.4028    4805.2349    6375.8994    7328.1204   -642.66881   -781.95462   -1551.3245 
   83500    256.69975   -163.75896   -130.34565   -163.75896            0     7121.995    17.945407    22.289144    19.659997 0.0019617856    -6.712452   0.01560856    7863.7581    7484.5202    8623.8798     5257.585   -1600.6268    1398.8053   -537.84905 
   84000    269.78646   -163.84315    -128.7264   -163.84315            0    5215.6088    18.016133    22.330179    19.695727   -0.1272943   -6.7064863  0.058038089    7923.6597    4244.0896    5438.8908    5963.8459   -1945.6218   -165.30574    2890.8576 
   84500    250.96529   -162.86893   -130.20205   -162.86893            0     3884.026    18.281692    22.549426    19.393739  -0.15650278   -6.7520898   0.11312394    7994.9074    3338.2252    4926.6385    3387.2144    1384.4792    560.03404   -569.23722 
   85000    256.23513    -164.4424   -131.08956    -164.4424            0     5675.075    18.216742    22.576488    19.105477 -0.089902201   -6.7569439   0.11087294     7857.511    5600.4141    4243.8562    7180.9546    2049.1111   -1650.4423    1229.0698 
   85500    253.91897    -162.7275   -129.67615    -162.7275            0    4632.5578    18.071888    22.760614    19.314043 -0.015931806   -6.8146024  0.034789091    7944.3927    5974.3342    859.66288    7063.6762   -71.930883    382.99034   -152.32964 
   86000    253.20904   -163.36054    -130.4016   -163.36054            0    5347.3308    17.943938    22.709394    19.539287 -0.0035681978   -6.9020024 -0.061857903    7962.1806    4818.7307    7107.9737     4115.288    1236.3846    776.40128   -2864.3009 
   86500    254.40629   -164.84343   -131.72864   -164.84343            0    5525.7349    17.898685    22.566342    19.489537 -0.017994811   -6.9528382  -0.10058535    7871.9769    2893.6021    7102.2001    6581.4024   -1432.0723    1546.2468   -954.30566 
   87000    253.14098   -165.61192   -132.66183   -165.61192            0    3647.7028    18.137548    22.625378    19.385947 -0.016179036   -7.0070894 -0.014199807    7955.3891    1190.7666    4447.3572    5304.9845   -204.68174   -1237.6652    2607.7462 
   87500    256.11328    -164.8185   -131.48152    -164.8185            0    8311.2465    18.267241    22.518364    19.171829 -0.010965275   -7.0151068   0.14742779     7886.301    9314.4131    8627.3255    6992.0007    709.93797    409.88803    30.926841 
   88000    261.40814   -164.53135   -130.50517   -164.53135            0    4613.5766    18.293183    22.626131    19.275984  -0.12312255   -6.9425774    0.1682189    7978.4059    8953.1544    3369.6379    1517.9376   -1071.8831   -1949.1187   -491.16301 
   88500    248.85579   -164.00469   -131.61238   -164.00469            0    5892.3312    18.037762    22.621055     19.37127   -0.2369188    -6.832811 0.0081665336    7904.1213    5208.2919    5829.5707    6639.1311     614.9546   -1277.1741    574.04241 
   89000    242.08511   -165.17864   -133.66764   -165.17864            0    7259.1522    17.852761    22.714953    19.506989  -0.21544714   -6.7219782  -0.13278213    7910.5648    7761.3671    6411.4714    7604.6182    392.82511   -61.961373    1407.2336 
   89500    253.22903   -166.52579   -133.56424   -166.52579            0    6556.7587    17.946752    22.766636    19.429276 -0.032453931   -6.7290987 -0.080453211     7938.553    5394.7537    5805.4338    8470.0885   -17.380791   -2085.3029   -2136.2717 
   90000    251.34761   -165.64544   -132.92879   -165.64544            0     6431.481    18.112839    22.610367     19.10304   0.18682403   -6.8437419  0.087708013    7823.4199       6804.7    7100.4875    5389.2555   -2250.1751    1250.5317   -3374.9114 
   90500    256.39266   -164.61996   -131.24662   -164.61996            0    1131.4061    18.307847    22.686318    19.281377   0.20408357   -7.0167056   0.14003527    8008.2812   -689.91599    921.54321    3162.5911   -1635.6293    999.53076    640.09094 
   91000    261.11167    -164.8576   -130.87001    -164.8576            0    3971.7941    18.121394    22.511994    19.378716 0.0034531264    -7.075549  0.046658025    7905.5225    3867.6242    1812.3648    6235.3934   -1118.5534    1887.3306   -2708.9402 
   91500    241.95897   -165.82291   -134.32833   -165.82291            0    6723.4416    18.004116    22.501808    19.523425  -0.22829417   -7.1032375 -0.069764872    7909.4306    8421.7749    6103.8722    5644.6778   -250.46848   -1747.2046   -2805.5018 
   92000    249.06207   -164.15186   -131.73271   -164.15186            0    5541.9415    18.057181    22.583784    19.473142   -0.2933921   -7.1121898 -0.090699975     7941.137    10621.503    2498.7773    3505.5441    1617.8038    132.26279    1460.1927 
   92500    240.61262   -163.42716   -132.10783   -163.42716            0    5616.1008    18.256782    22.643464    19.217341 -0.087171715   -7.0301138  0.025387143     7944.387    1459.2468    7375.1774    8013.8783   -1099.8109    1817.8585    906.23598 
   93000    253.44187   -163.77483   -130.78557   -163.77483            0    4137.0109    18.262529     22.72441    19.070977   0.17226866   -6.8043148   0.13619605    7914.5544    -98.18811    5491.7238    7017.4969     652.7688   -957.44286   -2087.7362 
   93500    247.59176   -164.24304   -132.01526   -164.24304            0    5834.4934     18.02911    22.793179    19.367262   0.21479537   -6.5608227  0.052982337    7958.7972    6043.0871    3303.6188    8156.7744   -872.88468   -2724.0111    1411.7231 
   94000    251.82965   -165.32254   -132.54314   -165.32254            0    5223.3818    17.850333    22.683069    19.525481  0.089397902   -6.4177797  -0.13337264    7905.8737    4300.4145    6227.4472    5142.2837    4033.7574    558.51929    703.39243 
   94500    260.18562   -165.41779   -131.55073   -165.41779            0    7235.7159    18.037498     22.57321    19.484338   0.02342446   -6.5104141  -0.15198608    7933.3254     8191.788    5664.0009    7851.3588   -2365.3666   -172.15692   -458.21781 
   95000    248.99082   -165.66013   -133.25024   -165.66013            0    7120.5831    18.272936    22.497002    19.259957 -0.0089527402   -6.7522778 -0.031758115     7917.504    7943.3855    7243.2656    6175.0981    320.38753    5.2541422   -1435.5195 
   95500    249.85986   -163.61533   -131.09233   -163.61533            0    4099.9062    18.226582    22.575207    19.213937 -0.060192037   -6.9192355  0.068348373    7905.9369    644.14943    7564.2283    4091.3409   -925.99731    1649.7142    1107.2712 
   96000     266.5065   -164.32121    -129.6314   -164.32121            0     6468.045    18.089333    22.783276    19.297367  -0.11224298   -7.0378865  0.093492709    7953.1064    8969.1765    6301.3855     4133.573   -391.11022    748.72992    1113.1775 
   96500     254.2852   -162.77654   -129.67751   -162.77654            0    4579.7752    17.975133    22.834019    19.323583   -0.0749899   -7.0277019  0.064677483    7931.2592    3888.1008    4082.2438     5768.981    -1692.741    1781.7812   -2822.8658 
   97000     254.0614   -164.01027   -130.94037   -164.01027            0    6546.2121    17.995031    22.716887    19.304132 -0.039460398   -6.9449222 -0.0005581588     7891.357       4260.8    7395.7755    7982.0607   -697.42649   -488.75454    911.92387 
   97500    263.29661   -165.35032   -131.07833   -165.35032            0    5561.6698    18.141549    22.594202    19.361929  0.036790509   -6.8154356  -0.10012186    7936.3354    10080.529    2960.6891    3643.7906    204.54883   -1303.1728     1659.119 
   98000    244.45843   -164.14762   -132.32769   -164.14762            0    4169.4556    18.168713    22.423462    19.485818   0.12242756   -6.5466632  -0.11422491     7938.628    2218.7282    4947.4963    5342.1422    577.81363   -3133.1301    1657.1966 
   98500    252.88407   -164.43207   -131.51542   -164.43207            0    9609.3335    18.043779    22.288012    19.565034   0.18135407   -6.2382218   0.02879068    7868.2735    9657.0728    9848.7466    9322.1813    1742.1532   -1842.5584    1795.3871 
   99000    257.52765   -164.42037   -130.89929   -164.42037            0    1628.6164    18.115402    22.579442    19.584418    0.1694726   -6.1740165   0.17174883    8010.7255    4897.3317   -869.34779    857.86535   -3512.8737   -2501.7324   -1745.7288 
   99500    254.71504   -161.60651   -128.45153   -161.60651            0    6533.2409    17.994918    22.605774    19.235897 -0.071907766   -6.3246174   0.13206175    7824.9521    4976.9628    4546.1338    10076.626   -2473.5384   -1074.6476   -4403.6274 
  100000    252.38929   -164.21273   -131.36049   -164.21273            0    4386.6999    18.112331    22.958519    19.276744  -0.23302202   -6.6586217  0.081890298    8015.8927    2207.3087    2907.7555    8045.0354   -976.54673   -603.73075   -1288.8951 
  100500    255.96264   -163.52513   -130.20776   -163.52513            0    8137.1357    17.946786    22.868633     19.21792  -0.17338077   -6.8426027  0.057476691    7887.3891    7306.6574    9057.5332    8047.2164     825.0543    963.93248    2588.6646 
  101000    254.54332   -164.80462     -131.672   -164.80462            0    2778.6953    18.018961    22.772664    19.301322 -0.053615944   -6.9526074  0.086684086    7920.0994    1072.2039     4898.551    2365.3311   -686.98172   -74.339301   -725.12934 
  101500    256.88955   -165.17341   -131.73539   -165.17341            0    6699.4825    18.097579     22.66613    19.352233  0.039096557   -7.0251678  0.080582535    7938.3263    9979.8724    3956.4251    6162.1501    1115.9428   -1131.9344    1910.1337 
  102000     248.5343   -163.78475   -131.43429   -163.78475            0     4931.786    18.158942    22.445564    19.380048    0.1847186   -7.0625937 -0.012120027    7899.0692    2727.7775    6981.1318    5086.4488   -1009.9029   -84.737311    733.37855 
  102500    253.42971   -165.24584   -132.25817   -165.24584            0    6368.1022    18.168178    22.359919    19.477796   0.22722394   -6.9887519   -0.1256252    7912.6401    8612.7037    4871.3592    5620.2438    2301.4191    822.69175    625.43731 
  103000    253.64885   -163.48157   -130.46537   -163.48157            0    5651.5712    18.060869    22.537157    19.473868   0.16480322    -6.697731  -0.14274747    7926.6554    7443.5972    5575.5978    3935.5186   -1587.2664   -1190.6307    75.351639 
  103500    246.92927   -164.39263   -132.25109   -164.39263            0    7617.2548    17.991909     22.85915    19.199704 0.00013201275   -6.3867844  0.001133357    7896.4493    7872.7032    6319.9314    8659.1297    1538.0626   -1555.5861   -1337.4908 
  104000    246.34855    -162.5914   -130.52545    -162.5914            0    7434.1749    17.971514    23.034967    19.108439    -0.168003   -6.3336412   0.16749753    7910.3825    8374.6427    8645.5081    5282.3739   -481.61834   -314.21303      869.678 
  104500    247.89148   -164.39754   -132.13075   -164.39754            0    5137.9714    18.023953    22.993408    19.296508  -0.19274204   -6.4659063   0.26844171    7997.0925    7908.4558    659.67855    6845.7799    2461.6101   -3737.4953    165.55713 
  105000    264.18173   -163.76656   -129.37936   -163.76656            0    5018.3702    17.989179    22.549607    19.302576  -0.12114276   -6.7408203   0.17185144    7830.0689    3480.1161    5776.8592    5798.1354    365.17137   -1175.5317   -346.66032 
  105500    254.55686   -163.18244   -130.04806   -163.18244            0    4585.0331    18.221004    22.504484    19.502736  -0.14005891   -7.1525423 -0.034510075    7997.1809    4420.5399    4841.2754     4493.284    596.78385    704.27584   -228.62661 
  106000     250.6261   -163.52652   -130.90378   -163.52652            0       7387.4    18.177256    22.455252    19.468996 -0.015401994   -7.2584355  -0.10528456    7946.7543    4150.1184    7656.5471    10355.534   -593.32749    3296.2841    2451.5408 
  106500    249.53246   -163.36632   -130.88594   -163.36632            0    4307.5599    18.052102    22.545299    19.391787  0.028453854   -7.1271993 0.00051726201     7892.264    6473.5096    2702.2311    3746.9392    1259.5342    763.01018   -2171.7405 
  107000    249.88533   -164.39067   -131.86436   -164.39067            0    4604.2564    18.097009    22.699895    19.407713 -0.013400753   -7.0192211  0.088256255    7972.6923     4716.492    4499.9336    4596.3435   -1766.0701   -752.99943    1340.3205 
  107500    252.82559   -163.35232   -130.44328   -163.35232            0     7496.919    17.981353    22.631382    19.309031  -0.11854898   -6.7741479   0.10577347    7857.6724    5999.2979    9100.3917    7391.0672    2365.6367   -57.199168   -650.54062 
  108000    255.76666    -163.8093   -130.51744    -163.8093            0    5766.2879    18.020855    22.697091    19.478258  -0.17983443   -6.5098272   0.13654758    7967.0162    5647.5906    5738.2132      5913.06   -1604.3697   -2830.9528    1049.2059 
  108500    262.58681   -163.21364   -129.03404   -163.21364            0     4446.181    18.108472    22.541423    19.469292  -0.19415007    -6.347991   0.10869283    7947.1844    2428.5113    5668.0325    5241.9991    1314.4416     2575.372    2484.6037 
  109000    260.35207   -164.30779   -130.41908   -164.30779            0    7986.3991    18.144281    22.501717    19.298446 -0.098528423   -6.2958114 -0.0014654612    7879.1208    5323.9015    7087.5213    11547.774    22.132419   -1250.7362   -3062.3075 
  109500     251.9096    -163.7734   -130.98359    -163.7734            0    4904.9563    18.198893    22.749268    19.361798   0.03964896   -6.5630871 -0.097750804     8016.007    4951.6779    7211.2211      2551.97   -590.29481    1252.7876    3489.6274 
  110000    248.28363   -163.12172   -130.80389   -163.12172            0      5862.56    17.962463    22.726259    19.276759   0.26465975   -6.9545717 -0.046596431    7869.1507    8110.7964    6132.8306    3344.0529    210.58486    1584.2079   -887.64175 
  110500    250.68801   -164.56412   -131.93332   -164.56412            0     8232.057    17.949248    22.830044    19.300434   0.27028301   -7.2227119 -0.0092974668    7908.9732    7683.0463    8573.7712    8439.3535    -401.6566   -347.02971    669.00775 
  111000    258.24194   -164.51198   -130.89793   -164.51198            0    4399.1432    18.102845     22.84519    19.278378  0.027580424   -7.3077546 -0.053357313    7972.8224    3018.6006    3543.2015    6635.6275    1296.6825    2615.1497    429.83566 
  111500    257.41436   -164.68339   -131.17705   -164.68339            0    5675.3231    18.123976    22.633658    19.191727  -0.24175946   -7.1602159  -0.02944819    7872.6745     3051.997    5902.4978    8071.4744   -117.03821    3007.7858    2763.9549 
  112000    245.77263   -163.00084   -131.00985   -163.00084            0    5986.3629    18.226769    22.584048    19.374984  -0.36392717   -6.9495819  0.086743941    7975.4065    6503.7318    4360.6834    7094.6736    3017.2379    838.44538    2376.4678 
  112500    251.27057   -165.25139   -132.54476   -165.25139            0    5917.0071     18.17187    22.353628    19.463014  -0.26297028   -6.7042531   0.15640591    7906.0172    10746.593     4852.296    2152.1328   -632.07166   -167.30085    2830.2364 
  113000     257.8054   -165.20185   -131.64462   -165.20185            0     3547.327    18.147034     22.30041    19.502601  0.038863263   -6.5765163   0.12601168    7892.4354    3833.3886    5508.0116    1300.5807    1453.8809    248.30117    2062.9593 
  113500      253.274   -163.78758   -130.82017   -163.78758            0    5013.0693    18.159116    22.531648    19.515851   0.29382029   -6.6342547  0.060230822    7985.0044    5598.7593     4613.668    4826.7805   -2387.1714    -171.7917   -1410.5415 
  114000    255.46815     -164.318   -131.06499     -164.318            0    5825.8784    17.989253     22.65467    19.295352   0.34952404   -6.7147848  -0.16177646    7863.6392    11946.418    5085.1418    446.07489   -791.67256   -621.54288   -1429.4604 
  114500    257.71103   -163.53517   -129.99022   -163.53517            0    130.57591     18.00748    22.942345    19.302031   0.17247627   -6.9048394  -0.29061278    7974.3216    807.21883     811.7218   -1227.2129   -74.678004    2076.8553   -452.62346 
  115000    253.85693   -163.16851   -130.12523   -163.16851            0    7998.4232    17.982097    22.893837    19.218042 -0.097279983   -7.0791248  -0.15398025    7911.6679    10990.593    6284.1397    6720.5371    2202.9832   -2449.1709    4066.7434 
  115500    269.61715   -164.93954   -129.84483   -164.93954            0    6181.2769    18.007069    22.843952    19.245434  -0.21911937   -7.1475901   0.15320786      7916.66    9462.8044    3802.3888    5278.6375   -556.18979    1379.3167    70.026465 
  116000    253.66069   -165.11717   -132.09943   -165.11717            0    7051.5299    18.121508    22.743858    19.247502  -0.17138858   -7.1154925   0.33290952    7932.9158    3720.8341    7161.3968    10272.359    -1013.475    -786.8402   -2197.4538 
  116500    263.41212   -164.16874   -129.88171   -164.16874            0    7466.4382    18.127602    22.616228    19.295068  -0.12867461   -6.9940558   0.25711429    7910.5528    9047.7122    8017.7157    5333.8867   -3765.7165    1409.0761    368.06841 
  117000    248.60653   -164.86228   -132.50242   -164.86228            0    4862.5265    18.136276    22.566332    19.425822  -0.12401398    -6.898503 -0.016037199    7950.3911    5008.4419    4344.5172    5234.6203   -802.00391   -1980.6891    531.25115 
  117500    248.35545   -164.45493   -132.12775   -164.45493            0    5539.4992    18.060286    22.399543    19.469604 -0.072825977   -6.7333238  -0.30258777    7876.2756    7552.9477    6074.1942    2991.3556   -1910.3186   -1130.8525     2802.361 
  118000    251.70342    -165.7026   -132.93963    -165.7026            0    6876.0926    18.062141    22.437336     19.55206   0.13279694   -6.6526376  -0.29006107    7923.7917    5671.2062    8752.4417    6204.6298    1279.3776    179.71312    1020.7336 
  118500    251.42454   -163.39306   -130.66639   -163.39306            0    8069.5888    18.103872    22.540528    19.413449    0.3315548   -6.6578423  0.088577482    7922.0623    7348.2072    8112.2956    8748.2635   -645.48751   -1906.7168    2395.2598 
  119000    252.44781   -164.85549   -131.99563   -164.85549            0    9080.2336    18.106882    22.704758    19.145453   0.27906224   -6.7291239   0.40425552    7870.9326    9901.2018    9160.0878    8179.4112   -1286.8322   -308.04442    -5304.875 
  119500    251.42363   -163.38982   -130.66327   -163.38982            0    5260.3364     18.10835    22.914907    19.241248  -0.14967873   -6.9066546   0.24528125    7984.1784   -4.8379813    8599.3668    7186.4803    668.53436   -94.899588    827.35053 
  120000    247.67708   -162.93196   -130.69308   -162.93196            0    3273.9775    17.914568     22.92775    19.294729  -0.46336081   -6.9224559 -0.040495609     7925.131    2825.7809    2896.2343    4099.9174   -462.54292   -401.18543   -415.99029 
  120500    247.75186   -163.43953   -131.19092   -163.43953            0    6153.7724    17.919506    22.860417    19.330406  -0.30891583   -6.9674343  -0.10672744    7918.6503    11059.363    3549.1488    3852.8058     2264.334    787.86996    1897.0543 
  121000    248.13911   -163.79951    -131.5005   -163.79951            0    6513.2949    18.114609    22.742865    19.270598  0.055296009     -7.08481  0.025966224    7939.0648    7207.6183    6052.8025    6279.4639     62.66785   -277.08346   -5550.9881 
  121500    252.65784   -164.09526   -131.20806   -164.09526            0    4668.5373    18.206814    22.626622    19.227091   0.30289151   -7.0749426  0.096561556    7920.7673    3760.8534    5298.3922    4946.3662    631.66718    1037.6184   -1865.4074 
  122000    259.46622   -163.32533   -129.55192   -163.32533            0    4136.0812    18.172392    22.615394     19.30123   0.26233201   -6.9879138 0.0022841241    7932.3386    5696.9304    3494.2069    3217.1062   -889.04438   -1390.5777   -1622.6822 
  122500    259.54129    -161.9235   -128.14032    -161.9235            0    7993.0294    18.030304    22.647072    19.412731 -0.059211572   -6.8313131   -0.1207365    7926.8704    8225.8977    7771.2605    7981.9301   -157.72178    -1444.519   -1270.6351 
  123000    252.56711   -163.61603   -130.74064   -163.61603            0      6820.36    17.976427    22.714154      19.4695  -0.29773436   -6.6683712  -0.11131506    7949.7733    4536.7372    9549.7776    6374.5652   -1132.3931   -1569.5048   -453.38524 
  123500    249.32561   -162.76159   -130.30813   -162.76159            0    8690.9624    18.067426    22.624492    19.324285  -0.31062975   -6.6171331   0.17230929    7899.1175    7148.0214    8233.6704    10691.195    2194.0839    1937.5538   -969.52875 
  124000     249.3966   -163.06055   -130.59785   -163.06055            0    6720.0321    18.219208    22.581601    19.325428  -0.14863708   -6.6556475   0.43423069    7950.8461    9154.7475    4861.1178    6144.2309     1350.282   -3113.0236    1350.6865 
  124500    254.57377   -162.94105   -129.80446   -162.94105            0    7397.9613    18.193944    22.552184    19.340331   0.08870415   -6.7232466   0.34409305    7935.5931    8918.8088    7568.3118    5706.7633    4112.1129     3375.887    1234.2525 
  125000     258.4084   -162.82965   -129.19392   -162.82965            0    6851.6746    18.110962    22.551717    19.380036   0.22686294   -6.8173758 -0.092877988    7915.4521    3741.0125    6494.7697    10319.242     1193.863    258.38853    1789.7723 
  125500    258.82748   -163.22979   -129.53952   -163.22979            0     3822.197    18.045203    22.637734     19.47448   0.23817462    -6.940101   -0.4684532    7955.3738    4285.0963     3416.987    3764.5077   -2310.5618   -275.67438    426.75365 
  126000    263.98243   -164.67483   -130.31357   -164.67483            0    6235.2285    17.986916    22.741507    19.392343    0.1533377   -7.0756411  -0.38998821    7932.4297    9580.5978    5287.4299    3837.6578   -629.59939    2463.5134   -346.91594 
  126500    251.53511   -165.55632   -132.81527   -165.55632            0    5832.8402    18.040647    22.725994    19.308879  0.054783863   -7.1379778  0.050504135    7916.4787    9181.3184    4542.8232    3774.3791   -256.73273    1249.8139    -59.26458 
  127000    250.84732   -163.47203    -130.8205   -163.47203            0    5930.1721    18.081433    22.711006     19.26312  -0.15807093   -7.0530571   0.35749016    7910.3526    4297.9543    5301.4001     8191.162    1960.3174   -1179.3279   -3488.8422 
  127500    251.92884   -163.59202   -130.79971   -163.59202            0    7260.4739    18.101029     22.74194    19.341672  -0.38118138   -6.9186537    0.3316666    7962.0476    6475.2466    8184.7057    7121.4694   -126.56779    1219.5695   -1930.8247 
  128000     251.1737   -163.89031   -131.19629   -163.89031            0    5763.8879    18.006365    22.655133    19.333076  -0.41416486   -6.7535444   0.11349713    7886.6692     7680.613    5583.0143    4028.0364    -351.7085   -1683.0588   -4943.2154 
  128500    254.27862   -163.81005   -130.71188   -163.81005            0    2538.1723    18.012908    22.722442    19.430456  -0.13901142    -6.627426  -0.10488145    7952.8327    3160.4679    2031.0331    2423.0158    635.22468    642.18315    2561.6789 
  129000    267.97241   -164.51809   -129.63747   -164.51809            0    7390.0499    18.025614    22.690043    19.382795   0.28239905   -6.5803002  -0.14826171    7927.6009     6697.022     10632.24    4840.8882   -538.22438    792.81967   -117.74633 
  129500    257.31658   -163.23854   -129.74493   -163.23854            0    4543.2184    18.106479    22.589888    19.278353   0.53679089   -6.7035907 -0.088788557    7885.2958    1212.4778    6175.3067    6241.8707   -3344.8788    2089.2342   -1174.5685 
  130000    250.92894    -164.3199   -131.65774    -164.3199            0    4805.6295     18.28604    22.676992    19.339606   0.31510493   -6.8987733 -0.0089512902    8019.6006    4672.6227    3510.2889     6233.977    668.18901    31.841816   -1796.1318 
  130500    262.28321   -164.50979   -130.36971   -164.50979            0    10113.159    18.067383    22.570229     19.24441 -0.080190188   -6.9832587  0.087416037     7847.581    11125.777    9626.6955    9587.0048    100.17608    186.25178   -3032.3742 
  131000    253.56633   -165.49932   -132.49387   -165.49932            0    4372.7706     18.02842    22.721356    19.421808  -0.33090047    -7.044011   0.18318432    7955.7581    7070.9129    2332.1656    3715.2332    1318.2572    -1060.656   -4293.7715 
  131500    247.60927   -165.38397   -133.15392   -165.38397            0    7324.9451    18.006737    22.700843    19.403032  -0.29127026    -7.022814   0.16020851     7931.341    7046.5893    7173.5752    7754.6707    110.33766    536.79726   -2159.2337 
  132000    245.41074   -163.02242   -131.07854   -163.02242            0    5857.2864    18.078517    22.652971    19.287473 -0.097145297   -6.9700488    0.1179353    7898.8396    7286.4446    6459.2116    3826.2031    1832.8135    2480.2167   -1127.7047 
  132500    267.02835   -164.70633   -129.94859   -164.70633            0    6428.4354    18.144147    22.732581    19.249975  0.047673948   -6.9209467  0.090983953    7939.9083    5954.2813    7332.8864    5998.1384    2302.3989     447.8262    1724.2174 
  133000    258.75951   -162.74381   -129.06238   -162.74381            0    3022.8578    18.101377     22.74809    19.349551   0.11609533   -6.8163249  0.049914954    7967.5988     3964.678    1706.7388    3397.1566    1961.5003   -3084.9828    2447.7838 
  133500    268.54072   -164.12162   -129.16702   -164.12162            0    5256.6115    17.987893    22.608167    19.416776   0.18000825   -6.7449726  0.017108535    7896.2839    3437.2404    7070.8862    5261.7079   -919.29315    1712.5138   -1539.5418 
  134000    254.76376   -166.77499   -133.61367   -166.77499            0    7794.2093    18.012034    22.608689    19.462035   0.17744016   -6.7174528 0.0098667136    7925.4945    10621.449    8163.8504    4597.3289    985.97684   -292.69331    -251.0611 
  134500    255.19634   -164.97123   -131.75361   -164.97123            0    5361.8686    18.125117    22.633545    19.259058   0.10481844   -6.7829991   0.01485307    7900.7521    1854.5479    7186.1778    7044.8802    505.29419   -288.80576    1840.6271 
  135000    245.34093   -164.33048   -132.39569   -164.33048            0    5781.3855    18.299796    22.748194    19.032313  -0.12891769   -6.9368296  0.014931053    7922.9103    5962.6187    3377.0294    8004.5083    2239.8764   -608.98345    2710.3007 
  135500    252.95761   -164.26102    -131.3348   -164.26102            0     5887.101    18.115745    22.788293    19.163657  -0.26816523   -6.9734131  0.023105525     7911.273    5518.1138     5119.678    7023.5113   -343.24932    1487.8853   -957.07672 
  136000    251.73987   -163.43328   -130.66557   -163.43328            0    4123.4487    17.863416    22.791915    19.544226  -0.23217374   -6.8884433  0.079466049    7957.2648    7017.3962    2826.6446    2526.3054    -1587.964   -871.30882    -4319.187 
  136500    246.91069   -162.28322    -130.1441   -162.28322            0    8713.1749    17.892979    22.542797    19.554495 -0.046804836   -6.8537496   0.13612497    7887.4578    8708.7612    9221.9567    8208.8067    823.50289    1295.1773    2371.0454 
  137000    257.80711   -164.63182   -131.07437   -164.63182            0    6662.1127    18.205327    22.453375    19.454761   0.11235731   -6.9133764   0.13073236    7952.5427    6462.0356    8313.9299    5210.3726    872.73254    499.70638   -1889.9331 
  137500    269.89234    -163.9704   -128.83987    -163.9704            0    7265.3938     18.33764     22.41007    19.226757    0.1285719   -6.9428627 -0.029501346    7901.1932    6438.3742    7129.7605    8228.0466   -4577.7927   -1157.8368   -747.62362 
  138000    263.38111   -165.10305   -130.82005   -165.10305            0    5393.7996    18.239194    22.539057    19.318323 0.0017427416   -6.8836671   -0.1317348    7941.6513    4944.5276    4485.1398    6751.7314   -729.21633    201.43684    2758.3074 
  138500    259.27032   -164.72646   -130.97855   -164.72646            0    6894.2719     17.93317    22.649365    19.476002  -0.15817666   -6.7382311 -0.053098116    7910.6635    5644.1115    8367.0466    6671.6576    -1571.988    1012.3942   -1662.6995 
  139000    248.99447    -165.3619   -132.95154    -165.3619            0     5199.068    17.833961    22.710656    19.409186 -0.087158198   -6.6555395   0.14038599    7861.1268    6808.4491    2684.9313    6103.8236    904.01458    770.45093    1074.3937 
  139500     255.6564   -165.55553   -132.27802   -165.55553            0    3380.9976     18.03995    22.867644    19.218529  0.064985616   -6.6984819   0.26760789    7928.2417    3723.5996    2828.4486    3590.9448   -1114.6019    1407.9916     49.55928 
  140000    252.02471    -162.8956   -130.09082    -162.8956            0    6606.3784    18.239634    22.826225    19.035928    0.1027095   -6.8276903    0.1246823    7925.4558    4354.2728    7677.1906    7787.6717   -2536.4321    4011.6652   -2657.1702 
  140500     256.9441   -162.67639   -129.23127   -162.67639            0    5374.4361    18.167518    22.696498    19.228291  0.052708855   -6.9312672  -0.25411326     7928.575    4062.1193    7692.9796    4368.2094   -660.96547    412.97643   -1615.1822 
  141000    252.60037   -163.87685   -130.99714   -163.87685            0    8373.0674     18.09119    22.576375    19.482637 -0.028255394   -7.0135623  -0.38044726    7957.3612    5841.9494    8182.7756    11094.477   -1434.9878    -673.3609    1003.8908 
  141500    257.02466    -164.9806   -131.52499    -164.9806            0    8493.5405    17.969352    22.522604    19.501162  0.078062529   -6.9843473 -0.075535745    7892.4439    12005.124    4728.8105     8746.687   -192.67839   -1094.0976    -1546.963 
  142000    257.04101   -165.48882   -132.03108   -165.48882            0    6932.5646    18.084076     22.64195    19.430356   0.14978727     -6.99782    0.2658119    7955.9289    8555.8361     4944.993    7296.8647   -1662.9212   -2310.6017   -2181.4939 
  142500    253.07877   -162.58081   -129.63882   -162.58081            0    5504.5066    18.088502    22.700862    19.261972  0.019073593   -6.9485199   0.29398134    7909.4392    4876.9881    5203.1652    6433.3663   -812.88982    890.47835   -2048.2412 
  143000    261.92096   -163.85224   -129.75931   -163.85224            0    2460.5611    18.133519    22.814264    19.278949  -0.18908488    -6.845569  0.082483739    7975.7565    2651.5878    1743.9029    2986.1928    1323.6217    375.45519   -736.63151 
  143500    262.69036   -164.68604   -130.49296   -164.68604            0    6483.9888    18.059262    22.679909    19.257109  -0.28410099    -6.766228 -0.084142134    7887.3731    7152.5024    3937.1184    8362.3455    1548.3985   -1031.8753    2169.6303 
  144000    246.95054   -163.05642   -130.91211   -163.05642            0    6248.5342    18.093202    22.670702     19.44674  -0.11687993   -6.7148882 -0.031644723    7976.7725    11014.261    3231.6152    4499.7263    2544.6703   -1410.3495    1404.8785 
  144500    262.25012   -164.50649   -130.37072   -164.50649            0    5473.2316    18.048722    22.512707    19.490753   0.23726857   -6.6792396   0.18569536     7919.592    1605.5971     8164.287    6649.8108   -1855.7083    577.73905   -2285.1194 
  145000    256.14443   -162.93553    -129.5945   -162.93553            0    6953.4297    18.096922    22.472475    19.434232   0.34392313   -6.7119431   0.17692661    7903.5648     10403.94    4536.0345    5920.3143   -2450.5222    651.20117   -4260.3664 
  145500     261.4202   -163.89483   -129.86708   -163.89483            0    4238.1897     18.28716    22.758894    19.327663   0.11660804   -6.8358511  -0.12028442    8044.0867     3315.406     6671.049    2728.1142   -652.32026   -1611.4313   -1084.6435 
  146000     240.5586   -162.32368   -131.01138   -162.32368            0    6780.8554     18.06993     22.80305    19.082361  -0.23109869   -6.8329522  -0.27756174    7862.8776    8313.0001    5469.0329    6560.5331     2383.492    689.64229    2320.4714 
  146500    246.63374   -163.99241   -131.88934   -163.99241            0    9390.2394    17.968367    22.953209    19.199105  -0.28034888    -6.894004 -0.098829269    7918.3196    13608.387    5562.6327    8999.6984    1248.8028   -1567.0421   -11.423027 
[...]
  365000    260.37193   -165.07416   -131.18286   -165.07416            0    6234.2574    18.105518    22.677676    19.400617  -0.13119431   -6.8607598   0.11461729    7965.7201     8454.944    5695.7743    4552.0538    1532.3736    103.31571   -2229.0161 
  365500    257.63104   -164.56085   -131.02632   -164.56085            0    7079.8984     18.00777    22.719039    19.274257  0.063806304   -6.5897322   0.17721056     7885.469    5706.2852     9603.377    5930.0331    676.17422   -396.38062    96.317182 
  366000    263.15173   -163.94412   -129.69099   -163.94412            0     8236.664    18.016291    22.753838    19.286866   0.19624613   -6.5193234   0.10138929    7906.4531     11450.44    6465.8025    6793.7494   -1518.6296   -1815.5607    924.49352 
  366500    257.84212   -164.54686   -130.98484   -164.54686            0    9387.7903    18.062875    22.738678    19.319735  0.015648485   -6.5961642  -0.18630972    7935.1159     8455.254    10741.636    8966.4813   -799.35498   -686.34786     1971.964 
  367000    248.30985    -163.7389   -131.41766    -163.7389            0    7467.0554    18.131298    22.586212    19.311989  -0.06540504   -6.7654538  -0.29336136    7908.5945     5715.326    8015.7543     8670.086    1048.1167    137.38467    3717.4464 
  367500       256.89   -164.04751   -130.60943   -164.04751            0    7305.3212     18.17624    22.448911    19.346723  0.058960168   -7.0479242 0.0019677294     7894.175     5696.652     8708.554    7510.7575    3131.0106    598.99468    1689.1412 
  368000    255.19959   -163.72678   -130.50873   -163.72678            0    10697.124    18.098157    22.368614     19.47914   0.16082865   -7.3202617    0.3489369    7885.7535    11086.954    11487.316     9517.101    1114.6799    1700.4453    514.28607 
  368500    249.43852   -163.83822   -131.37006   -163.83822            0    3368.1511    18.119629    22.514995    19.521057  0.080491591   -7.4249674   0.29353559    7963.8758    1992.0416    3727.2679    4385.1439   -2303.0342    694.52618   -1865.8488 
  369000    265.67146   -165.76103   -131.17992   -165.76103            0    7028.0907    18.023794    22.668615    19.218711  -0.24296321   -7.2284144 -0.037057662    7852.2742    10250.756    3758.8166    7074.6993    668.96314      1590.38   -1799.1592 
  369500    258.84851   -164.62656   -130.93355   -164.62656            0    5848.7312    18.113125    22.830893    19.238929  -0.26737833   -7.0383408   -0.1703307    7956.0438     5901.863    3946.7468    7697.5839    3247.4285    1293.3128   -411.66509 
  370000    263.04548   -163.38512   -129.14581   -163.38512            0    4845.9289    18.054927    22.717337    19.287848 -0.068303825   -6.7859309  -0.06835972    7911.1014    9181.0082    375.95607    4980.8226    838.87439   -1249.9227   -3677.0553 
  370500    254.93914   -164.73578   -131.55164   -164.73578            0    2186.4861    18.022383    22.572824    19.363331   0.10641738   -6.6281881  0.088737518    7877.3145   -3967.5475    6200.7282    4326.2776    2277.8073    1292.6316    979.75886 
  371000    249.59808   -164.02349   -131.53456   -164.02349            0    6245.3471    18.101406    22.530365    19.448014   0.14454064    -6.606687   0.15283893    7931.5081    8392.6082    6662.4227    3681.0104    1210.1977   -1934.8511   -2443.1688 
  371500    250.53353    -164.5434   -131.93271    -164.5434            0    7900.3607    18.065051    22.421291    19.397667  0.092800037   -6.6959999 -0.011713644    7856.8653    5447.2231    9695.2838     8558.575    -2074.109   -616.96439   -880.93775 
  372000    256.42655   -164.83557   -131.45782   -164.83557            0    5084.5782    18.092588     22.58749    19.437625 -0.095912631   -6.9229042  -0.18971789    7943.4993    2375.4528    6195.1606    6683.1212    506.19308   -487.89828    2084.5625 
  372500    256.65305    -165.0647   -131.65746    -165.0647            0    6515.2135    18.102244    22.639741    19.297776  -0.17953757   -7.1422172   -0.1648729    7908.8094    7456.0739    4767.3214    7322.2451    1596.8952   -84.019336   -1137.2711 
  373000    242.54179   -165.98625   -134.41581   -165.98625            0    6470.6114    18.093773    22.729906    19.114631 -0.065843634   -7.2326454  0.080837407    7861.2693    4351.1795    6555.4476    8505.2072    3668.5582   -3739.8893    -3562.518 
  373500    251.52658   -165.47322   -132.73327   -165.47322            0    7120.4808    18.042188    22.892934    19.257036   0.10630059   -7.2370921   0.32884016    7953.8997    5976.4361      5586.88    9798.1262    1140.6327    2599.3324   -2783.3261 
  374000     260.0286   -163.77663   -129.93001   -163.77663            0    7622.3434    17.900098    22.716672     19.35923    0.2030181   -7.0455475   0.30469207    7872.0565    5895.6948    8433.9111    8537.4244   -3437.5108   -1316.7315   -2267.5748 
  374500    255.73893   -162.61171   -129.32346   -162.61171            0     738.8008    18.099727    22.668223    19.442412  0.060301778   -6.8577593 -0.029212579    7977.0006    2363.7931    1963.4409   -2110.8315   -1353.1733   -492.00985   -3076.3615 
  375000    268.37724   -163.50569   -128.57238   -163.50569            0    10321.636    18.189413    22.478353    19.357568 -0.035104964   -6.7210327  -0.29919117    7914.6914    7364.9668    13300.606    10299.336    87.102644   -30.439668    2166.2133 
  375500    254.50891   -164.14486   -131.01672   -164.14486            0     5177.911    18.132885    22.458443    19.329774  0.023916763   -6.6935945  -0.18492962    7871.7867    5863.1702    5461.4113    4209.1515    1035.9573    790.51973   -2379.3442 
  376000    254.74022   -163.83518   -130.67693   -163.83518            0    3763.6696    18.119525    22.660697    19.418986   0.10614154   -6.7632101  0.073061765    7973.4565    2879.7583    3858.7031    4552.5473   -882.82353    70.521786   -719.09145 
  376500    261.95039   -163.42284   -129.32608   -163.42284            0    10428.743    17.956273    22.740788    19.292824    0.0513859   -6.8420229   0.25251177     7878.028    9123.7491    10094.585    12067.895   -1222.5825   -1799.9054   -68.787002 
  377000    242.37716    -164.2369   -132.68789    -164.2369            0    2347.8543    18.007764    22.871065    19.239916  -0.16367676   -7.0090863   0.21350253    7924.0891    3640.5668    233.71568    3169.2802   -854.93063   -2366.0344   -2289.6573 
  377500    250.69431   -164.49563   -131.86401   -164.49563            0    5573.9297     18.03539     22.72992    19.180011  -0.34753462   -7.1103561  0.044799297    7862.7109    5289.9241    5194.8616    6237.0033    4125.5836    1228.6423    1787.2301 
  378000    246.91073   -163.77156   -131.63243   -163.77156            0    8550.6509     18.12818    22.670883    19.319666  -0.29402512   -7.1277847   -0.1252548    7940.0323    9136.4961    8877.5824    7637.8743    695.38328    2487.1281   -446.15088 
  378500    253.49994   -165.63862   -132.64181   -165.63862            0    8046.8025    18.092667    22.462128    19.474766  0.073034748   -7.0174859  -0.12872485    7914.5405    9039.6706    7188.1588    7912.5781   -1377.4868    81.180831    1971.4519 
  379000    251.11363   -163.51779    -130.8316   -163.51779            0    9812.9654    18.032858    22.374697    19.525391   0.39751076   -6.8477852  0.019154589    7878.0996     11002.21     9474.146    8962.5401   -2497.9197   -1169.0037   -2627.2039 
  379500    251.64644    -164.4667   -131.71115    -164.4667            0     5289.277    18.160723    22.509475    19.471954   0.30464971   -6.7936734  0.063388944    7959.9079    5774.0393    7388.1479    2705.6438   -727.77828    683.81018   -2547.4336 
  380000    250.50443   -164.37802   -131.77112   -164.37802            0    2841.8561    18.135712    22.587427    19.179578 -0.0054798028   -6.7520728 -0.042833976    7856.7046   -1526.2209     2472.485    7579.3041    10.903216   -2003.1782   -243.44732 
  380500    251.27017   -165.51357   -132.80699   -165.51357            0    5983.1952     18.04209    22.854539    19.194105  -0.26227269   -6.7798907 -0.039995629    7914.5675    5010.3546    6083.4005    6855.8304    943.07262   -1068.8653    1269.4958 
  381000     254.1479   -164.83985   -131.75869   -164.83985            0    5396.8471      17.9208    22.898379    19.285348  -0.34611805   -6.8493869  0.075900151    7913.8827    8856.6398    4178.9093     3154.992    1925.3269    955.31999    80.179366 
  381500    262.27424   -162.16465   -128.02574   -162.16465            0     7151.997    17.993247    22.769126     19.37879  -0.24760609   -6.9701889    0.2262826    7939.3062    10117.942    6268.2562    5069.7932   -1779.8115    382.06581    743.79844 
  382000    250.53184   -163.40531   -130.79484   -163.40531            0    5044.4969    18.174276    22.493705     19.38825  0.082400173   -7.0322425   0.28734811    7926.0485     7196.035    6776.7113    1160.7445   -523.14128   -572.33966    1759.2447 
  382500    273.45001   -163.95342   -128.35981   -163.95342            0    6349.9764     18.25667    22.301163    19.407025   0.33637712    -6.998879  0.072626534    7901.4727     6345.847    5807.8365    6896.2458   -362.20756    1977.2109    491.74014 
  383000    255.82556   -162.78666   -129.48713   -162.78666            0    9256.8508    18.192319    22.392001    19.541586   0.37540147    -6.844768  -0.24432526    7960.5081    9056.7433    8118.2434    10595.566   -12.197314    2229.5777   -201.99048 
  383500    259.90915   -161.57252   -127.74145   -161.57252            0    7234.8023    18.002822    22.504009    19.532626   0.27986831   -6.5976546  -0.32673191    7913.3632    7504.0833    4686.7125    9513.6111   -649.78188   -2111.7463    1863.8062 
  384000    253.23947   -164.05971    -131.0968   -164.05971            0    8974.0796    17.949621    22.756814    19.416655 0.0077228561   -6.5273932 -0.083886194    7931.2413    6254.6108    9330.5809    11337.047   -1355.4923   -1193.2102    473.60354 
  384500    248.17284   -163.45394   -131.15053   -163.45394            0    6433.3899    17.969496    22.903096     19.18844  -0.25154328   -6.6286762   0.22487056    7897.1381    7597.2197     7817.269    3885.6811    36.672809    781.98175   -3052.7182 
  385000    248.32237   -164.81947   -132.49659   -164.81947            0    6878.7125    18.001951    22.888513    19.141857  -0.27752147    -6.771246    0.2874057    7887.1706    9481.4561    3327.1703    7827.5111    463.98454   -218.22234    1052.1774 
  385500    243.63447   -164.66468     -132.952   -164.66468            0    4493.4927    18.073402    22.801987    19.249767  -0.14265693   -6.9450706   0.21129131     7933.011     3734.389    4810.4353    4935.6539    1459.1297    1277.6119    2921.8351 
  386000    254.26543   -164.37432   -131.27787   -164.37432            0    5477.4011    18.063142    22.549563    19.386471  0.072894716   -7.0202455  0.079945685    7896.4189    6851.6964    7454.1505    2126.3565    950.43825    964.35418   -68.829455 
  386500    261.41062   -163.77864   -129.75213   -163.77864            0    6302.4171    18.129703    22.441769    19.472748   0.20815769   -7.0446526   -0.1077859    7922.7329    6013.4046    5293.1169    7600.7299   -2306.5744    357.91774    4254.6087 
  387000    249.66762   -164.02231   -131.52433   -164.02231            0    4481.7765    18.193131    22.468862    19.455336   0.13901224   -7.0026804  -0.12840518    7952.9323    6693.8276    5421.3567    1330.1453    446.23956   -1708.7385    866.20849 
  387500    253.32831   -164.02593   -131.05146   -164.02593            0    10223.078    18.155265    22.542604    19.259487 -0.038599069   -6.8901337 -0.0027757058    7882.2714    8242.4322     11551.43    10875.371    -2729.062    2541.0629    -557.6349 
  388000    240.17814   -165.01713   -133.75435   -165.01713            0    6244.5878    18.097911    22.839784    19.216233  -0.14822143   -6.7639322   0.18663385    7943.0757    3122.1687    6038.0214    9573.5732     -1222.29   -89.244073    51.957898 
  388500    250.77624   -165.55064   -132.90836   -165.55064            0    6724.6716    17.885137    22.867327    19.206038  -0.26990381   -6.5994051    0.3518058    7854.9869    8310.7286    5146.0315    6717.2548     119.7919   -369.84815   -1296.9327 
  389000    248.20923   -164.97575   -132.66761   -164.97575            0    5140.3706    17.815558    22.900552    19.428937  -0.23771586   -6.5437433   0.30355062    7926.7364    9080.2665    5981.8056    359.03964   -2091.5785   -199.63345   -2399.1113 
  389500    245.97913   -164.59752   -132.57965   -164.59752            0    5870.8752    17.997897    22.561216    19.478697 -0.080204028   -6.6822132 -0.0081833069    7909.4113    5288.9161    7766.1591    4557.5503   -292.59287    779.20819    1082.3489 
  390000    246.57016   -165.33116   -133.23637   -165.33116            0    6561.2695    18.266485    22.207759    19.408689   0.14751619   -6.9360268  -0.23769506    7873.2841    7904.2831    6899.6942    4879.8313   -407.67746   -2211.6504    1063.7042 
  390500    259.99126   -164.66178   -130.82003   -164.66178            0    5195.4489    18.369202    22.244307    19.450469   0.31424847   -7.0944091  -0.20663668    7947.6595    5104.5453    4392.8342     6088.967    208.92787    1845.2666   -238.80259 
  391000    257.59484   -163.07216   -129.54234   -163.07216            0    8083.1578    18.209738    22.343747    19.413987   0.22790348   -7.1212844 -0.044416225    7899.0422    10985.068    8123.3084    5141.0969   -2884.5737    1019.2852   -779.15883 
  391500    258.10283   -161.44361   -127.84767   -161.44361            0    10021.178    18.038932     22.66285    19.425798 -0.054493844   -7.0686772   0.12001922    7941.5306    10088.663    10472.843    9502.0278   -3189.3727    1444.0758    3960.5482 
  392000    246.11288   -166.03808    -134.0028   -166.03808            0    5016.1633     17.94447     22.84064    19.340326  -0.31716325   -6.9883861   0.22163221    7926.8873    10875.573    4020.5304    152.38592    3154.9728    727.01237   -2601.2441 
  392500    242.80264   -164.47035   -132.86595   -164.47035            0    7519.9236    17.968599    22.822055    19.166714  -0.38777526   -6.8922678   0.17991589    7859.8925    7590.1003    6959.0606      8010.61   -55.056791   -11.436784    2978.2493 
  393000    249.05859   -162.80012   -130.38142   -162.80012            0    4334.3498    18.144311    22.850613    19.175018  -0.16464115   -6.8192222  0.066660397    7950.1278    5606.6694    3515.5149    3880.8652    -522.1362    1216.3163   -4525.0624 
  393500    270.17363   -163.07614     -127.909   -163.07614            0    7783.3638    18.160826    22.601763    19.278305   0.23556207   -6.7628116 -0.092379043    7913.1019    6620.4354    10035.152    6694.5034    1490.9584    2321.2534    2920.2582 
  394000    251.75481   -164.65561   -131.88595   -164.65561            0    5188.4994    18.038979    22.410884    19.495692   0.48513398   -6.7246301  -0.16608317     7881.513     4943.353    7165.4881    3456.6569     1357.529   -939.88492    1832.7006 
  394500    244.69416    -164.2752   -132.42459    -164.2752            0    4361.8619    18.118049    22.362633    19.622264   0.43113417   -6.8510281  -0.14193898    7950.2991    3560.1493     5810.456    3714.9805   -1032.2413    -511.9775   -1915.7948 
  395000    255.23807   -164.02737   -130.80432   -164.02737            0    7445.8966    18.145485    22.470998    19.327262  0.073562307   -6.9416599 -0.035181103    7880.6365    8303.0146     6378.751     7655.924   -1921.8502   -741.71504    3089.9807 
  395500    248.75975   -164.73265   -132.35284   -164.73265            0    4191.4327    18.188649    22.701023    19.202484  -0.26862534   -7.0903944    0.1110948     7928.724    4926.4188    2711.1358    4936.7434   -229.70092    795.12942    2268.6641 
  396000    250.42706   -165.63348   -133.03665   -165.63348            0    10228.125    18.030237    22.775456    19.227668  -0.43762792   -7.1157311   0.17661077    7895.7816    9661.0017    10794.302    10229.071    2714.2122      1704.68    2098.8071 
  396500    247.53088   -165.30495    -133.0851   -165.30495            0     7560.572     17.94683     22.80919    19.238615   -0.2754187   -7.0144147   0.20740066    7875.3782    9039.1013    7924.4971    5718.1175    909.90857     1378.642   -322.41322 
  397000    250.93513   -163.62409   -130.96113   -163.62409            0    6622.6516     18.03396    22.741235     19.35286 -0.036211524   -6.9377052   0.13248149     7936.889     5143.295     8947.929    5776.7308   -77.314275    742.28732    1858.4919 
  397500    248.07074   -163.23584   -130.94572   -163.23584            0    5420.8978    18.064053    22.640401    19.344436   0.22754458   -6.7477404  0.040212973    7911.4372     6348.584    5591.3658    4322.7437   -1369.1837    1226.4257   -4400.4645 
  398000    258.02798   -165.16931   -131.58311   -165.16931            0    4146.2033      18.1998    22.492077    19.376917   0.33553632   -6.6243654  -0.12569481    7931.9668     3470.951    4618.8617    4348.7971     -1974.57   -276.71507    191.51727 
  398500    261.20522   -163.51577     -129.516   -163.51577            0    10294.043    18.263069    22.312524    19.411993   0.17122584   -6.6060584  -0.31153427    7910.2934    10857.859    9372.6368    10651.634   -1007.4695   -159.84461   -1607.3492 
  399000    240.89943   -165.81351   -134.45684   -165.81351            0    7024.9208    18.134624    22.380728    19.525865  -0.20895098   -6.6494682  -0.21176177    7924.8868    7420.9039     4784.925    8868.9335     1483.356    -713.5571    1136.1475 
  399500    247.43367   -164.08488   -131.87769   -164.08488            0    6848.6406    17.937025    22.600592    19.482785  -0.39803338   -6.7730097   0.27574066    7898.0753    8961.3896    4723.2518    6861.2804   -323.59177   -558.11884   -423.22638 
  400000    243.36209   -164.69745   -133.02023   -164.69745            0    4309.3442    17.917656    22.831098    19.337125  -0.33609132   -6.8861699   0.50073191    7910.4263    7340.4335    1292.5751    4295.0239    1664.7314   -1223.7814   -1737.0576 
Loop time of 2567.43 on 1 procs for 400000 steps with 1008 atoms

Performance: 6.730 ns/day, 3.566 hours/ns, 155.798 timesteps/s
72.0% CPU use with 1 MPI tasks x 1 OpenMP threads

MPI task timing breakdown:
Section |  min time  |  avg time  |  max time  |%varavg| %total
---------------------------------------------------------------
Pair    | 2205.4     | 2205.4     | 2205.4     |   0.0 | 85.90
Bond    | 0.056219   | 0.056219   | 0.056219   |   0.0 |  0.00
Neigh   | 329.66     | 329.66     | 329.66     |   0.0 | 12.84
Comm    | 11.379     | 11.379     | 11.379     |   0.0 |  0.44
Output  | 2.0256     | 2.0256     | 2.0256     |   0.0 |  0.08
Modify  | 17.255     | 17.255     | 17.255     |   0.0 |  0.67
Other   |            | 1.618      |            |       |  0.06

Nlocal:        1008.00 ave        1008 max        1008 min
Histogram: 1 0 0 0 0 0 0 0 0 0
Nghost:        5125.00 ave        5125 max        5125 min
Histogram: 1 0 0 0 0 0 0 0 0 0
Neighs:         0.00000 ave           0 max           0 min
Histogram: 1 0 0 0 0 0 0 0 0 0
FullNghs:      271866.0 ave      271866 max      271866 min
Histogram: 1 0 0 0 0 0 0 0 0 0

Total # of neighbors = 271866
Ave neighs/atom = 269.70833
Ave special neighs/atom = 0.0000000
Neighbor list builds = 40000
Dangerous builds not checked

unfix		3
unfix		2

write_data	data.final.${pid}
write_data	data.final.0
System init for write_data ...

write_restart   restart.lmp.${pid}
write_restart   restart.lmp.0
System init for write_restart ...
Total wall time: 0:42:53
