LAMMPS data file via write_data, version 29 Sep 2021, timestep = 2000000

864 atoms
2 atom types

0.007233058531666003 18.200339941468894 xlo xhi
0.008519587156740727 21.43759541284372 ylo yhi
0.008824314303268466 22.204371685697097 zlo zhi

Masses

1 1.008
2 15.999

Atoms # full

679 0 1 -1.1794 1.5066704890826919 3.036692275836886 0.7022167199021635 1 0 1
66 0 2 0.5897 3.073508303580738 3.2711665404222496 4.020254463851037 0 0 0
219 0 2 0.5897 1.7815695695850173 1.7145205298387562 1.9175215934826952 0 0 0
680 0 2 0.5897 0.5725997229487376 2.8198055006419955 0.47201670739412427 1 1 1
217 0 1 -1.1794 1.709104879519181 0.9494603643509029 2.520089635359321 0 0 0
335 0 2 0.5897 2.8552158414870825 0.3839058769656483 3.7101262458482327 0 1 0
218 0 2 0.5897 1.3712401378983554 0.1610516099150314 2.009770456250238 0 0 0
681 0 2 0.5897 1.468524650454471 3.8148513627276377 1.2030851559420277 1 0 1
862 0 1 -1.1794 4.136497175407737 3.491403155121396 2.3026643912446447 0 0 1
864 0 2 0.5897 4.064051062105657 2.9329341911479494 1.5467157668702924 0 0 1
503 0 2 0.5897 0.10861795962235384 1.2795355274230256 3.2389848754073185 0 1 0
436 0 1 -1.1794 8.258932616307414 0.5825123140689586 0.06561179264655105 0 1 1
438 0 2 0.5897 7.630652832274432 1.0168100615297577 0.6421127771022043 0 1 1
307 0 1 -1.1794 6.957501075197261 1.9274313325700925 2.5109908605452462 0 0 1
308 0 2 0.5897 6.184323163905288 2.304522334913995 2.0844414478101494 0 0 1
309 0 2 0.5897 7.544379478620464 2.71681675496529 2.467114997276727 0 0 1
236 0 2 0.5897 7.798068516106477 4.290773632189982 0.5228516493140172 1 0 0
327 0 2 0.5897 5.871301369528632 1.5313220935302667 4.11191715115943 0 1 0
816 0 2 0.5897 4.983697054366318 0.6125940818658917 0.5613296344545293 0 0 1
814 0 1 -1.1794 4.7676226892009055 1.4928322860012095 0.27362576652828 0 0 1
296 0 2 0.5897 9.987063518633278 3.2214298326578943 2.50936164253666 0 0 0
295 0 1 -1.1794 10.538130241893635 2.5289406091801014 2.890310355351624 0 0 0
297 0 2 0.5897 11.045753606959748 2.1483222813216014 2.1564869352268214 0 0 0
634 0 1 -1.1794 13.036063067059956 1.7483192258848572 1.7759921907043985 0 0 1
635 0 2 0.5897 13.339297854427029 1.3087894576020398 0.9310578937998129 0 0 1
636 0 2 0.5897 12.642462548174267 0.9912957662406445 2.244410844549802 0 0 1
228 0 2 0.5897 9.50331940946813 1.3233269230582532 3.9350687939835054 -1 1 1
60 0 2 0.5897 11.70095469204221 3.4420980759392674 4.115057041866486 0 0 0
776 0 2 0.5897 13.84973305849687 4.109889793168664 3.7811971960710484 0 1 1
777 0 2 0.5897 14.006736932790593 3.305685229342267 2.540043466844189 0 1 1
775 0 1 -1.1794 14.338638515434694 4.100455560242827 2.939399273757948 0 1 1
504 0 2 0.5897 17.476225136555904 2.388551497753902 3.9783568752915 -1 1 0
502 0 1 -1.1794 17.42057612208547 1.5411158619882024 3.5103054288347266 -1 1 0
708 0 2 0.5897 16.261816996690918 4.164626155436174 3.9583922384802595 -1 0 1
419 0 2 0.5897 16.074718404240073 0.4171740363393572 3.6588761389388367 0 1 0
863 0 2 0.5897 4.31299409360346 4.3808667514169946 1.9488869291950055 0 0 1
46 0 1 -1.1794 1.384381725446584 5.6471243626450525 1.7624408701877252 1 0 1
152 0 2 0.5897 1.0711975925727306 5.445132202482202 3.3495436504459226 1 -1 -1
627 0 2 0.5897 2.3607061543244514 8.458238562855389 3.5223918704114796 1 0 0
702 0 2 0.5897 0.3261819488700791 7.194170837883606 3.997525526653845 0 0 0
151 0 1 -1.1794 0.9550987278949892 5.4016244742323485 4.334716144267366 1 -1 -1
625 0 1 -1.1794 3.3266474290724974 8.522696503815984 3.503738075570318 1 0 0
39 0 2 0.5897 4.244687585146013 6.874899656885956 2.276246730162304 1 1 0
700 0 1 -1.1794 0.452385805424667 8.145803509822638 3.944852550269166 0 0 0
626 0 2 0.5897 3.470820104851357 8.388966138603633 4.409608889177537 1 0 0
37 0 1 -1.1794 4.180412835406209 6.340661737140115 1.4677739279212856 1 1 0
47 0 2 0.5897 2.3056707775721876 5.894197227943814 1.5804409071845438 1 0 1
48 0 2 0.5897 0.8761603057904777 6.011616165484772 1.0156258411398804 1 0 1
38 0 2 0.5897 4.822489875994051 6.709080087530122 0.8607687437802687 1 1 0
617 0 2 0.5897 8.99192041224829 5.335414175208121 2.033407709046414 -1 0 1
616 0 1 -1.1794 8.65127572362195 4.505196266844788 2.495215687110535 -1 0 1
618 0 2 0.5897 8.217364287045132 4.890509638922602 3.256202389383339 -1 0 1
491 0 2 0.5897 8.301245690746175 8.245459716322255 3.1162915790592134 0 1 0
200 0 2 0.5897 6.851783228639636 8.274885956848433 0.15014435007137567 0 0 1
24 0 2 0.5897 12.995736033156469 5.3621044140801795 2.0197882413827566 -1 1 1
22 0 1 -1.1794 12.480780853320717 6.163429795124116 1.8577105397666778 -1 1 1
23 0 2 0.5897 12.854145753638456 6.591920066708172 1.1351007607680907 -1 1 1
44 0 2 0.5897 11.981135938310128 6.899080902406524 3.1782990132118156 0 0 0
43 0 1 -1.1794 11.805354363622316 7.321011680866714 4.0402070052534675 0 0 0
209 0 2 0.5897 10.7814255115292 6.201708226488927 1.1268749051805105 0 0 0
208 0 1 -1.1794 9.848559343195253 6.421302117205286 0.9581579118343356 0 0 0
210 0 2 0.5897 9.864183214892337 7.306391886731461 1.159740674845633 0 0 0
743 0 2 0.5897 9.980382202117875 7.686293901371394 4.405942886419267 0 1 0
707 0 2 0.5897 17.72890158330486 4.699147361233209 4.322154233052569 -1 0 1
675 0 2 0.5897 16.23683806347541 7.8829468052661 2.258873122572938 0 0 1
131 0 2 0.5897 15.632546874232283 5.3553111024175175 2.113372427658729 -1 0 1
130 0 1 -1.1794 15.869319957129857 6.148808408551234 1.6433141983473267 -1 0 1
132 0 2 0.5897 16.460200714030748 5.904085315703521 0.920841092681187 -1 0 0
440 0 2 0.5897 3.1450826447857643 11.543171596806603 1.3534275080816203 1 0 1
441 0 2 0.5897 2.6588364900501222 11.41910431685218 2.8587375865767024 1 0 1
439 0 1 -1.1794 2.7859873328403397 12.009563120295685 2.101661741535184 1 0 1
855 0 2 0.5897 0.917252714388355 11.977978228478483 1.28075124041859 0 1 0
516 0 2 0.5897 4.761565733144859 12.258341168034121 2.5565401113202597 0 1 0
552 0 2 0.5897 5.001829491701358 9.27078919228099 2.2426481193315597 1 1 0
492 0 2 0.5897 7.210599898581618 8.92216930898428 2.2802910280446844 0 1 0
490 0 1 -1.1794 8.16332147778915 8.708023744648882 2.3206042558071376 0 1 0
514 0 1 -1.1794 5.694690013283564 12.025159659830944 2.74460209527132 0 1 0
550 0 1 -1.1794 5.72584383766128 9.512409281266663 1.649436160258172 1 1 0
551 0 2 0.5897 5.984475646367252 10.430982832987095 1.9296977382660576 1 1 0
515 0 2 0.5897 6.133314533160625 12.646610114043146 2.1650387857614897 0 1 0
53 0 2 0.5897 8.749653082679352 10.371678941776702 2.7772587519671665 -1 0 0
54 0 2 0.5897 8.531028611490637 11.839769669607149 3.4574153643284515 -1 0 0
677 0 2 0.5897 5.688563514067935 10.727353795916487 4.152235942586988 1 1 0
52 0 1 -1.1794 9.181194217593132 11.203831431325213 3.117312746493493 -1 0 0
171 0 2 0.5897 11.600845323394697 9.57865556660189 3.985821446140691 0 0 0
169 0 1 -1.1794 11.667942761152398 10.507209583104759 3.729985948804713 0 0 0
170 0 2 0.5897 10.7390335195432 10.825417984904016 3.5887264102165997 0 0 0
731 0 2 0.5897 12.601465889791797 11.9243989062725 4.234522364645463 0 -1 0
524 0 2 0.5897 10.897248467279981 9.945404505849663 0.5628721984056988 0 1 1
613 0 1 -1.1794 12.72543808117426 10.455365006014288 0.7329173873292824 0 0 0
525 0 2 0.5897 9.501500653865067 9.460834954284115 1.0251031824723 0 1 1
614 0 2 0.5897 12.69770768206474 10.60433079740015 1.6747390696024127 0 0 0
62 0 2 0.5897 9.754751765307741 12.424374410864264 1.670758487841131 0 0 1
523 0 1 -1.1794 10.055838748335743 9.537531106276877 0.2822072711733871 0 1 1
615 0 2 0.5897 13.329263950275312 11.156589029459711 0.36322688981101126 0 0 0
18 0 2 0.5897 13.093939095899792 8.755601349108963 0.23389296400486773 1 1 1
673 0 1 -1.1794 16.57179482694204 8.79513047704194 2.267869148098407 0 0 1
674 0 2 0.5897 17.310937714378397 8.777577325771652 2.933445897653705 0 0 1
27 0 2 0.5897 16.885005522640824 9.323232755325314 0.6635388982576591 0 0 0
853 0 1 -1.1794 18.185151967300413 12.172008337096436 1.130448165399168 -1 1 0
126 0 2 0.5897 14.982814092419517 11.562277499023661 3.085258918764121 0 0 0
125 0 2 0.5897 15.327867951349491 10.177013113499715 2.7214763693925708 0 0 0
124 0 1 -1.1794 14.575336684245288 10.655241024636561 3.028981015167228 0 0 0
854 0 2 0.5897 17.78533782845423 11.352331460079652 0.7405174309125977 -1 1 0
738 0 2 0.5897 15.184060930662314 12.526005791097184 0.6583590057750377 0 1 0
509 0 2 0.5897 13.931121080010906 9.61144264140962 4.379250753618692 0 0 1
330 0 2 0.5897 17.18766074991266 11.798107276099156 3.982832172777779 0 0 0
735 0 2 0.5897 2.9281321204278563 13.911368485118173 2.7971056978534437 1 0 0
733 0 1 -1.1794 3.4232076207140505 14.773819175733792 2.789957273521105 1 0 0
84 0 2 0.5897 4.356946446744073 15.40851230820012 1.3433443968187229 1 -1 1
734 0 2 0.5897 2.808772205296898 15.497362019659251 2.7919530594926933 1 0 0
4 0 1 -1.1794 0.40416234155116093 14.602341679431053 3.23280640940866 1 1 -1
198 0 2 0.5897 0.8376526787258259 16.74088866065602 1.3981627917725878 0 0 0
6 0 2 0.5897 0.4529678091197492 14.212726365869962 4.122964976765805 1 1 -1
196 0 1 -1.1794 0.25440405410135614 16.768959104571913 0.606554523032575 0 0 0
82 0 1 -1.1794 4.7619029326488675 15.9561619624867 0.6659037931973345 0 -1 1
267 0 2 0.5897 6.163617772722697 16.754260756673244 1.5689711573130873 0 -1 0
686 0 2 0.5897 6.917842429133773 14.338503974783928 0.11853265472532486 0 0 0
685 0 1 -1.1794 7.15742524645294 13.440681050748841 0.5178514529521536 0 0 0
687 0 2 0.5897 8.047070533122016 13.618473561772804 0.8110754394622609 0 0 0
265 0 1 -1.1794 6.815797748153734 17.075175458641326 2.2534880411512033 0 -1 0
848 0 2 0.5897 7.469709783345433 15.91758742947378 3.602503600512873 0 0 0
61 0 1 -1.1794 9.800948567012279 13.312169974148116 1.2981378077591932 0 0 1
63 0 2 0.5897 10.511448290901374 13.829145497090003 1.7471695550658897 0 0 1
277 0 1 -1.1794 11.289734571642812 16.142242406237404 1.6305816556466377 -1 -1 0
278 0 2 0.5897 11.348903915033276 16.517130431551756 2.475885374974991 -1 -1 0
279 0 2 0.5897 12.158410265976473 16.486544390140462 1.3351592382410271 -1 -1 0
534 0 2 0.5897 13.192334972014038 14.00355894976697 4.025289877095416 0 0 1
533 0 2 0.5897 13.22815870031296 15.544451213136714 4.144334901351096 0 0 1
699 0 2 0.5897 9.92891527534385 16.998637734849915 1.1775863125848653 -1 0 0
182 0 2 0.5897 9.305510514058522 16.680316019998894 4.424083870241454 1 -2 0
532 0 1 -1.1794 13.66923533174287 14.810028852445749 3.752712227350441 0 0 1
345 0 2 0.5897 16.627625679562193 13.520244305993966 2.4447064627964252 -1 0 0
343 0 1 -1.1794 15.744891379014586 13.138575041415551 2.36343482993502 0 0 0
344 0 2 0.5897 15.056948508534045 13.780266165098146 2.58882082270849 0 0 0
5 0 2 0.5897 17.881397280301954 15.23688373038494 3.3894169808214047 0 1 -1
397 0 1 -1.1794 16.10461806992096 16.059182705187197 3.726928604020995 -1 0 0
399 0 2 0.5897 15.331604382904649 15.450512696483834 3.813511419306269 -1 0 0
398 0 2 0.5897 15.87763888900781 16.76322385828648 4.4062186716598655 -1 0 0
347 0 2 0.5897 18.124558835080585 15.13832145993774 0.07248993543226279 -2 0 1
348 0 2 0.5897 17.870143791493298 13.690625480814832 0.21297285413065176 -2 0 1
334 0 1 -1.1794 3.02049213861412 21.022971158025815 4.286251071876166 0 0 0
641 0 2 0.5897 2.2193912217224536 17.893315055493876 3.232260176428038 1 0 0
642 0 2 0.5897 3.0327382925511186 17.511225910862663 1.9029490796800514 1 0 0
640 0 1 -1.1794 2.2645518719005953 17.33276185893827 2.446945522596437 1 0 0
254 0 2 0.5897 0.6253863708717325 19.587547946660596 1.7920293504834137 0 0 1
253 0 1 -1.1794 0.769939732231999 20.080383838308496 1.0143931056511457 0 0 1
255 0 2 0.5897 1.6647368253241634 19.735963923419746 0.7641059578203904 0 0 1
716 0 2 0.5897 3.9119688616735786 19.437929595253134 0.2864632820431014 0 -1 1
536 0 2 0.5897 1.087441037315134 20.60816862394374 4.1755385892002135 0 0 1
535 0 1 -1.1794 0.5643275609941694 19.873743200327006 3.836465894675195 0 0 1
137 0 2 0.5897 4.777242920647875 20.15721882749302 3.7264018606619507 0 0 0
698 0 2 0.5897 8.478940705053 17.475037239936775 1.2751220465308222 -1 0 0
180 0 2 0.5897 5.6299426739921 20.025794610553156 1.816303983796042 0 0 1
179 0 2 0.5897 5.953019974831083 19.856608172931576 0.27356226790704014 0 0 1
266 0 2 0.5897 6.366148862236321 17.87475809193174 2.5831310064516186 0 -1 0
178 0 1 -1.1794 5.352088165496238 20.317697467371133 0.9326772453477327 0 0 1
136 0 1 -1.1794 5.369574301132343 19.38689468144787 3.6093839257026286 0 0 0
185 0 2 0.5897 9.101375149446563 20.74151080811902 1.1081943077919978 0 -1 0
138 0 2 0.5897 4.966878075603877 18.681442326324817 4.162630093310676 0 0 0
826 0 1 -1.1794 13.512247747060071 17.274307986905153 0.2927196239542951 -1 0 1
697 0 1 -1.1794 9.239839337091134 17.48081985753194 0.6957914465014648 -1 0 0
186 0 2 0.5897 9.326560201241232 19.213812639569102 1.4761807123720114 0 -1 0
319 0 1 -1.1794 12.656004968131356 17.56318479114318 4.013814485228357 0 0 1
184 0 1 -1.1794 9.62134475130031 20.090754467884715 1.5982959485670942 0 -1 0
473 0 2 0.5897 12.149675940898259 20.249369963930338 3.5956615900843554 0 -1 0
472 0 1 -1.1794 11.726717680196769 21.011905536765457 3.1718526990693734 0 -1 0
474 0 2 0.5897 10.839455438294824 20.697587819419695 2.937821888974809 0 -1 0
782 0 2 0.5897 12.237519460674587 18.998173453156507 0.32365536817804 0 -1 0
783 0 2 0.5897 11.160148362287972 19.91851943325677 0.8074276435191002 0 -1 0
203 0 2 0.5897 13.375871456752487 20.23594757394726 1.3162889938308429 -1 0 1
321 0 2 0.5897 11.766070750537715 17.462272525660403 4.334220634941112 0 0 1
781 0 1 -1.1794 11.978594880976683 19.910035472163266 0.27283957822564264 0 -1 0
119 0 2 0.5897 16.22174265205269 17.194013497261103 2.209094012145794 0 -1 0
827 0 2 0.5897 14.427524952060795 17.229093829743007 0.5261779189124584 -1 0 1
120 0 2 0.5897 16.642434809714864 17.56983142655025 0.8218334597543245 0 -1 0
118 0 1 -1.1794 16.116336116332995 17.89195687414632 1.5405200246052613 0 -1 0
807 0 2 0.5897 17.146601859039592 20.534146835489427 0.3881514842357233 -1 0 0
420 0 2 0.5897 15.289591212352702 20.772235966167408 2.9813161951725617 0 0 0
418 0 1 -1.1794 15.649864128595942 21.01965028152296 3.8503886922169794 0 0 0
806 0 2 0.5897 15.607395184472152 20.9448051510176 0.7432612069420782 -1 0 0
805 0 1 -1.1794 16.49144887210177 21.202304663971656 0.2799211912142102 -1 0 0
202 0 1 -1.1794 14.339367357275123 20.2248808654002 1.5433448862139032 -1 0 1
204 0 2 0.5897 14.61275607603417 19.297580556455937 1.674238613738553 -1 0 1
537 0 2 0.5897 17.841814647505338 20.182919980099694 3.889818240368221 -1 0 1
64 0 1 -1.1794 2.8611119821043136 3.8097568087797593 4.7884569245618245 0 0 0
336 0 2 0.5897 3.4407663996582794 0.05760036410426169 5.089622425143638 0 1 0
65 0 2 0.5897 3.147431213981036 3.2495035729713044 5.562779091080398 0 0 0
518 0 2 0.5897 1.5590303435109056 2.8844602427159853 7.307593505410005 0 0 1
517 0 1 -1.1794 0.5971358143428892 2.9842518650716032 7.549114501469888 0 0 1
851 0 2 0.5897 3.8083455887370636 2.5263587947218284 8.088796163012807 1 0 0
850 0 1 -1.1794 3.3561569802464133 2.4220544558203243 7.254598173245058 1 0 0
852 0 2 0.5897 3.271046462504639 1.4747426894955622 7.268738904751005 1 0 0
519 0 2 0.5897 0.7036912498315722 2.8881706676803303 8.507135471939653 0 0 1
633 0 2 0.5897 6.785412775845458 3.476190173612573 7.491789082068391 1 1 0
595 0 1 -1.1794 8.404410440878404 2.444922050053737 7.143215535962105 0 1 0
597 0 2 0.5897 8.703673927550094 1.9129491561636496 6.416018182317107 0 1 0
325 0 1 -1.1794 5.211650001880787 1.2731924937147416 4.78909153149534 0 1 0
326 0 2 0.5897 5.498452746172314 1.6774050864174948 5.640109009921557 0 1 0
631 0 1 -1.1794 6.046867514785627 4.006053837659589 7.911595442605753 1 1 0
261 0 2 0.5897 8.016515271044943 1.8396408332643484 8.748350573492667 0 1 0
596 0 2 0.5897 9.151547155411695 2.9762555008401965 7.42203177667002 0 1 0
226 0 1 -1.1794 9.332864248344201 0.7748213246485733 4.716667328614596 -1 1 1
227 0 2 0.5897 10.122921539769253 0.8603520100493943 5.206662437419126 -1 1 1
749 0 2 0.5897 11.95504438608727 2.5389669189517337 6.070015462242586 0 2 0
748 0 1 -1.1794 11.610042261806246 1.7571673952997735 6.5417111341596765 0 2 0
750 0 2 0.5897 11.596367386088998 1.8635032631697266 7.486893716172749 0 2 -1
58 0 1 -1.1794 12.286328842426455 3.8536165841765593 4.731611253447043 0 0 0
818 0 2 0.5897 13.03465145041784 0.1833905119707459 5.9805796634955755 -1 0 0
706 0 1 -1.1794 17.006192057625718 4.123732347945832 4.620970421953288 -1 0 1
825 0 2 0.5897 17.96949804497418 1.4193527615238493 6.729677434554522 -1 1 0
823 0 1 -1.1794 17.65321402099147 0.6254367506393862 6.257947902267571 -1 1 0
824 0 2 0.5897 17.54979065932534 0.9072324007839303 5.316273379258733 -1 1 0
144 0 2 0.5897 16.218372391391433 0.6072128784046362 7.495358103163615 0 1 0
142 0 1 -1.1794 15.478452191097258 0.5088022704242856 8.108045331821332 0 1 0
143 0 2 0.5897 14.804915021538157 0.21272492599940918 7.46188754395013 0 1 0
110 0 2 0.5897 17.200265174141236 4.185440737782656 7.874888934096621 0 1 1
153 0 2 0.5897 1.6932959943370183 4.839703268636636 4.669063202198075 1 0 -1
701 0 2 0.5897 0.44469642924892155 8.452785060902311 4.8430813090057505 0 0 0
501 0 2 0.5897 4.136235229133803 5.0397897331213555 5.42253210595815 1 0 0
352 0 1 -1.1794 3.3184216883218793 7.988688078187417 6.102562261737637 0 -1 1
500 0 2 0.5897 4.365960624579107 6.405633501106475 6.015239155455447 1 0 0
822 0 2 0.5897 1.4075260333244148 6.209926409485855 8.245115503306844 0 1 0
354 0 2 0.5897 4.110113870717005 8.39725855069065 6.489981094142939 0 -1 1
821 0 2 0.5897 2.859641554263989 5.992749290072137 8.707140166896574 0 1 0
820 0 1 -1.1794 1.9616718251951673 5.663034574941732 8.761068540499407 0 1 0
632 0 2 0.5897 5.52013967528629 4.425990842009494 7.199161162703942 1 1 0
76 0 1 -1.1794 7.259277537124032 5.719061206776684 4.7773368182400615 0 0 1
78 0 2 0.5897 7.398907933449244 6.645704771763202 4.89397633134659 0 0 1
499 0 1 -1.1794 4.626967028307729 5.489279737506574 6.100603469725307 1 0 0
358 0 1 -1.1794 7.78444744845318 7.08634480295976 7.633025785795876 0 0 0
360 0 2 0.5897 8.062567425553688 6.6110685706745 8.455561521151585 0 0 0
359 0 2 0.5897 8.47879266519512 6.943457223128698 6.99619463161633 0 0 0
77 0 2 0.5897 6.426086908109122 5.44784607293231 5.247942869190986 0 0 1
483 0 2 0.5897 6.395922536249739 7.910656215060515 7.672509650005695 1 0 0
481 0 1 -1.1794 5.491376872962939 8.288411090703411 7.805527838906552 1 0 0
742 0 1 -1.1794 9.04406633872113 7.883335443170313 4.639248834271412 0 1 0
620 0 2 0.5897 5.251589387460835 5.578597362602327 8.881199687368841 0 1 0
70 0 1 -1.1794 10.06658272437358 4.32015017923113 8.617408264665865 0 0 0
45 0 2 0.5897 12.60989945445884 7.584786641539708 4.485608060229399 1 0 0
275 0 2 0.5897 13.328244506813869 5.351959595651236 7.636789903618922 0 0 0
59 0 2 0.5897 11.86599963714249 4.604434122772144 5.18822827506468 0 0 0
374 0 2 0.5897 11.684515518726426 6.712362546540277 6.915338838227881 0 1 0
375 0 2 0.5897 11.231650339420195 5.33444801697396 7.430859652413092 0 1 0
373 0 1 -1.1794 11.815523295392108 5.762995662341824 6.789648178952443 0 1 0
744 0 2 0.5897 9.140356044635599 8.575175360194986 5.219308481521009 0 1 0
111 0 2 0.5897 16.66266189672679 4.444012237700696 6.426730504741003 0 1 1
274 0 1 -1.1794 13.925947181409377 4.8475201330453075 8.204308994064464 0 0 0
109 0 1 -1.1794 16.461707722107576 4.617207749731236 7.400188105648485 0 1 1
276 0 2 0.5897 14.736842475964513 4.728330238618687 7.6622714808864325 0 0 0
786 0 2 0.5897 16.850501772506732 6.557146275401119 7.351118432816508 -1 1 1
784 0 1 -1.1794 16.974177958503475 7.431371209611384 7.7030410348607 -1 1 1
785 0 2 0.5897 16.85380962273006 7.398191359414547 8.654038718861075 -1 1 1
688 0 1 -1.1794 2.607268701423635 10.906709639818358 4.95567274432912 1 1 0
353 0 2 0.5897 2.6080790267795786 8.587629018490384 6.4642284530873715 0 -1 1
588 0 2 0.5897 0.26467438119102543 9.034881071427268 7.544971366516927 1 0 0
586 0 1 -1.1794 0.7595556372954115 9.252799194990343 6.777284034721986 1 0 0
690 0 2 0.5897 3.4635468726724827 10.443196862156963 4.8412291198749555 1 1 0
587 0 2 0.5897 0.9668096527304653 10.168503585336165 6.802344176466815 1 0 0
317 0 2 0.5897 1.487484588850927 12.550142406970105 7.78988071639045 0 0 0
316 0 1 -1.1794 1.3374358671279756 11.921752012433382 7.096018500522443 0 0 0
689 0 2 0.5897 2.779618206052042 11.51908109745181 5.628973938878013 1 1 0
318 0 2 0.5897 0.7051517248281708 12.375242944745867 6.508940473947051 0 0 0
676 0 1 -1.1794 5.5314135029652665 9.994673137440854 4.763227660526134 1 1 0
482 0 2 0.5897 5.701442359801467 9.189258748006804 8.125022974827543 1 0 0
678 0 2 0.5897 5.749910553504761 10.333591078105062 5.626646494407925 1 1 0
290 0 2 0.5897 5.946557531707229 12.475155173824486 7.054692354346206 1 0 -1
289 0 1 -1.1794 5.888758035904743 12.21390532745783 6.127555383358533 1 0 -1
730 0 1 -1.1794 12.59462484563261 12.678594157508204 4.877992910689904 0 -1 0
129 0 2 0.5897 9.335235199613592 9.672423207699959 8.861009027108201 0 0 0
562 0 1 -1.1794 12.360495993898505 8.691276338107052 7.590744106278927 -1 0 0
564 0 2 0.5897 12.9098323239819 9.124915193847553 6.888425647799576 -1 0 0
554 0 2 0.5897 10.848956516103874 9.33073254038706 7.213892564660084 0 0 1
555 0 2 0.5897 10.003047925007724 10.57903615750141 6.888193462786565 0 0 0
553 0 1 -1.1794 9.943702386584587 9.630499219745705 6.972399460374954 0 0 0
563 0 2 0.5897 12.728843220872735 9.096331952000616 8.40263031992011 0 0 0
568 0 1 -1.1794 10.386700187233297 12.450703297537812 6.619024639819795 1 0 0
732 0 2 0.5897 11.775286450025046 12.463955137235457 5.430553550585614 0 -1 0
569 0 2 0.5897 9.65646977656111 12.692959398541104 6.042575591052841 1 0 0
510 0 2 0.5897 14.64815289825096 9.16619329406385 5.726953944926519 0 -1 1
508 0 1 -1.1794 13.770071569912718 9.078178694795904 5.212577629572441 0 0 1
303 0 2 0.5897 16.45804555450527 8.876240371822478 6.873550806609913 -1 0 1
458 0 2 0.5897 13.989847813813755 12.5738216087767 6.148236525118212 -1 0 0
329 0 2 0.5897 16.459132153376814 12.456457643637993 5.1175579827049065 0 0 0
459 0 2 0.5897 15.158174946778109 11.82220724831272 6.963842268762578 -1 0 0
457 0 1 -1.1794 14.92108539947224 12.541905441091787 6.346775959966175 -1 0 0
302 0 2 0.5897 16.516029221067768 10.289892728815683 6.152016688221225 -1 0 0
301 0 1 -1.1794 15.969080808298967 9.722951804796468 6.732063879301741 -1 0 0
328 0 1 -1.1794 17.18151428496997 11.789206269732686 4.954044014593664 0 0 0
726 0 2 0.5897 15.958545363218828 10.175757863626359 8.731467680135477 0 0 1
692 0 2 0.5897 4.024165175830946 14.355238541921384 4.721804151884286 0 0 0
693 0 2 0.5897 3.088376866136711 14.304094724384742 5.976600378387777 0 0 0
691 0 1 -1.1794 3.9818668880795625 14.096869578273626 5.663200459915121 0 0 0
718 0 1 -1.1794 1.220169038128005 14.948649484140617 6.051631877624452 0 0 -1
720 0 2 0.5897 0.6036123699974884 14.938785755941632 6.739081233461714 0 0 -1
719 0 2 0.5897 1.1435795068332295 15.86931384466245 5.724597634660871 0 0 -1
33 0 2 0.5897 2.8097504665084614 16.84010852513714 8.684763411014337 1 0 0
291 0 2 0.5897 5.214115617558982 12.905712999193923 5.822165540344145 1 1 -1
176 0 2 0.5897 8.344368235098166 13.96108689714725 4.563301642720662 -1 1 0
177 0 2 0.5897 7.434623779370687 12.983939450978118 5.330726575074754 0 1 0
847 0 1 -1.1794 7.827374663847669 15.581100313464406 4.460243784732088 0 1 0
75 0 2 0.5897 5.192129524956396 15.58854415020765 6.432570029593931 1 0 0
175 0 1 -1.1794 8.311198226647267 13.079641283146055 4.938358431647528 0 1 0
73 0 1 -1.1794 6.0450188517566605 16.102891993432937 6.515745468360849 1 0 0
74 0 2 0.5897 6.143606860270285 16.099571622823422 7.45785381312955 1 0 0
849 0 2 0.5897 7.17461322877734 15.759819506673795 5.162193961471016 0 1 0
570 0 2 0.5897 10.520389082255345 13.229935380546955 7.189212011460591 1 0 0
512 0 2 0.5897 10.86467121776232 15.433347514538582 7.82919011533285 0 -1 1
511 0 1 -1.1794 11.312091182724421 14.641641970697872 8.201430427495415 0 -1 1
513 0 2 0.5897 12.280467492081465 14.768914620712446 8.044514749285222 0 -1 1
211 0 1 -1.1794 10.296944703615939 17.08426984575896 7.043137348882845 0 0 0
811 0 1 -1.1794 17.703345253294884 14.229808412972432 8.54615266195262 0 0 0
220 0 1 -1.1794 14.024091825377777 14.965804735988451 7.81819662976374 0 -1 0
221 0 2 0.5897 14.39012456184565 14.546827258341787 6.990222011961591 0 -1 0
222 0 2 0.5897 14.253648121178543 15.883078552436833 7.846473064488703 0 -1 0
745 0 1 -1.1794 16.385856582306097 16.8127430586346 7.109478560734349 0 0 0
747 0 2 0.5897 16.87015123698344 16.406615948575617 7.8569507009971415 0 0 0
813 0 2 0.5897 16.852537106667228 13.854833410510782 8.85900876949325 0 0 0
746 0 2 0.5897 17.188267995149886 16.968971212884398 6.5164194102038735 0 0 0
402 0 2 0.5897 0.504852046079617 19.682786184003533 8.130919441603881 1 0 0
654 0 2 0.5897 3.8066740762710403 18.274967386479137 7.107384726159235 0 0 -1
652 0 1 -1.1794 4.406382593610495 18.51475496086073 6.339431325458943 0 0 -1
401 0 2 0.5897 0.30645764123637587 20.764648606408382 7.002762882458708 1 0 0
400 0 1 -1.1794 0.8665855066679616 20.074358864163838 7.343122933031288 1 0 0
594 0 2 0.5897 2.5014399967149616 20.72081230542344 7.161072820745186 0 0 1
435 0 2 0.5897 1.7806530636175153 17.888199038887617 6.573970592897149 1 0 0
434 0 2 0.5897 0.8294040812253981 18.517275212266586 5.404355834276237 1 0 0
593 0 2 0.5897 3.9128708010780846 20.18709964175935 6.8755691034031825 0 0 1
592 0 1 -1.1794 3.4205879681825424 21.057254631363516 7.013818289152828 0 0 1
433 0 1 -1.1794 1.2849229484300813 17.711331532221937 5.742011215878217 1 0 0
31 0 1 -1.1794 2.8269269672127835 17.78049864066601 8.425285122080165 1 0 1
653 0 2 0.5897 5.150533521885992 17.88304790175366 6.52074740109391 0 0 -1
368 0 2 0.5897 8.223270827402835 20.63054767594836 5.0307857931946325 0 -1 1
367 0 1 -1.1794 7.969027073563081 19.686164309275174 5.132424482904882 0 -1 1
369 0 2 0.5897 7.161928283845089 19.59433247423513 4.605489121644916 0 -1 1
389 0 2 0.5897 7.621919335508905 19.090322865194874 6.865390024906555 0 0 0
388 0 1 -1.1794 7.364475515998301 18.9788848614734 7.808293509386129 0 0 0
390 0 2 0.5897 6.673421579851099 19.614461360380677 8.00003332815532 0 0 0
324 0 2 0.5897 4.827103365992909 21.19933138079774 8.575084474025175 1 0 0
342 0 2 0.5897 6.866216204302074 17.27812537904952 8.856325392350932 0 0 0
183 0 2 0.5897 9.292185922309772 18.21763679802707 4.459324221700626 1 -1 0
213 0 2 0.5897 9.799609994205488 17.611539588906755 7.749695607476644 0 0 0
181 0 1 -1.1794 9.879027749667856 17.424415969132898 4.486566881041924 1 -1 0
320 0 2 0.5897 13.155351369120426 17.821557314474433 4.776536286860211 0 0 1
212 0 2 0.5897 9.91675043448389 17.30362645933693 6.2073780330673465 0 0 0
108 0 2 0.5897 12.182437694370645 18.349027365485444 7.304443063120557 -2 -1 1
106 0 1 -1.1794 13.123325185875945 18.326846435485912 7.100392003423303 -2 -1 0
107 0 2 0.5897 13.247753748948956 19.256039983999127 6.91571935207364 -2 -1 0
817 0 1 -1.1794 13.688306383697517 20.90496706111855 5.975623302081365 -1 -1 0
819 0 2 0.5897 14.293315786934231 21.15873683653216 5.24053107750856 -1 -1 0
498 0 2 0.5897 15.954489766240718 19.41728470840088 5.114136102942204 0 -1 0
496 0 1 -1.1794 15.532549944583664 18.57024533810053 5.111223622240571 0 -1 0
497 0 2 0.5897 15.583445200006324 18.32596142500577 6.0788538934929 0 -1 0
585 0 2 0.5897 13.776179418819789 17.936646987828222 8.543955203489542 0 0 0
36 0 2 0.5897 3.6028012170269825 3.4790687289935622 9.891391932512052 1 1 0
34 0 1 -1.1794 4.33209542824712 2.918335585133551 9.807241037285998 1 1 0
304 0 1 -1.1794 1.8113912813164035 0.4582440606944203 10.349960428165701 0 0 1
306 0 2 0.5897 1.8029767633506706 1.359336895053256 10.000318860439624 0 0 1
650 0 2 0.5897 3.125380343972267 0.6889235766857046 11.688771008918327 0 1 0
305 0 2 0.5897 0.8711422076025855 0.29680318636725705 10.366296787252795 0 0 1
649 0 1 -1.1794 3.5767080283222152 0.7925818489932206 12.567698017590125 0 1 0
173 0 2 0.5897 4.267547232952359 2.591253977409515 12.592573808187414 0 0 0
838 0 1 -1.1794 1.3444403324154728 3.3481307152463766 10.15481315776399 1 0 1
839 0 2 0.5897 0.7918591721797528 3.490907479531617 10.934639670576756 1 0 1
840 0 2 0.5897 1.5130114511589325 4.205369287768979 9.78108969660889 1 0 1
443 0 2 0.5897 0.4292115856759981 2.6043376843794617 13.039478881412773 1 1 1
651 0 2 0.5897 2.8504891588714574 1.2662381285759563 13.054889188067932 0 1 0
35 0 2 0.5897 4.99537467988986 3.3933527681229236 9.298349453205132 1 1 0
260 0 2 0.5897 7.485389643843749 2.130447516841228 10.220809528389927 0 1 0
259 0 1 -1.1794 7.756040245524806 1.351246864728886 9.60528500502627 0 1 0
465 0 2 0.5897 6.499887738142084 3.352694391609144 11.988835293825526 0 0 0
463 0 1 -1.1794 7.406582436865809 3.280969020471308 11.631186200642164 0 0 0
464 0 2 0.5897 8.118913619702449 2.936361614741691 12.176763115101158 0 0 0
172 0 1 -1.1794 4.736126773682075 3.402392440311825 12.921120228607927 0 0 0
323 0 2 0.5897 6.230856868948987 0.4874127309736603 8.996624832626209 1 1 0
72 0 2 0.5897 10.601613964802278 3.7832312737681826 9.217771179342288 0 0 0
760 0 1 -1.1794 11.594804374915805 2.1780421961593106 9.555052280047514 0 0 0
761 0 2 0.5897 12.56449471207386 2.1652573856423873 9.687217513189657 0 0 0
762 0 2 0.5897 11.150449327600128 1.340020340340665 9.794077708701542 0 0 0
548 0 2 0.5897 10.515476107481648 1.7874308108685042 13.259955433141771 0 1 0
105 0 2 0.5897 9.275791194172717 0.33586697343166194 10.109619858079347 0 0 1
547 0 1 -1.1794 9.969552146232207 2.61193891093023 13.104061685212159 0 1 0
442 0 1 -1.1794 17.9343480969385 3.111417174712122 12.524093715291757 0 1 1
293 0 2 0.5897 16.67164831962748 0.4439738829515057 9.974016174262486 0 1 -1
728 0 2 0.5897 14.945126691667388 1.8633670997835106 9.085650321437798 -1 0 1
729 0 2 0.5897 14.501620174379017 3.408232798190994 9.092373472819077 -1 0 1