LAMMPS (29 Sep 2021 - Update 2)
  using 1 OpenMP thread(s) per MPI task
plugin load libdeepmd_lmp.so
Loading plugin: deepmd pair style v2.0 by Han Wang
Loading plugin: compute deeptensor/atom v2.0 by Han Wang
Loading plugin: fix dplr v2.0 by Han Wang
echo both

include		in.partitions
variable        pid world 0
include		in.temp
variable        temperature equal 265
variable        tempDamp equal 0.100
include		in.pressure
variable        pressure equal 0.986923
variable        pressureDamp equal 1.0 # This is 1 ps
include		in.seed
variable        seed world 745823

units           metal
atom_style	full
include		in.box
read_data       water.data
Reading data file ...
  orthogonal box = (0.0000000 0.0000000 0.0000000) to (18.207573 21.446115 22.213196)
  1 by 1 by 1 MPI processor grid
  reading atoms ...
  864 atoms
  reading velocities ...
  864 velocities
Finding 1-2 1-3 1-4 neighbors ...
  special bond factors lj:    0        0        0       
  special bond factors coul:  0        0        0       
     0 = max # of 1-2 neighbors
     0 = max # of 1-3 neighbors
     0 = max # of 1-4 neighbors
     1 = max # of special neighbors
  special bonds CPU = 0.000 seconds
  read_data CPU = 0.049 seconds
include 	in.setup
variable	out_freq equal 500
variable	out_freq2 equal 500

timestep        0.0005

neigh_modify    delay 7 every 1

include         in.deepmd
# This is deepMD model

# create groups ###
#group ox type 2
#group hy type 1

mass 2 15.999
mass 1 1.008

pair_style      deepmd ../graph.pb
pair_coeff      * *

bond_style      none
angle_style     none
dihedral_style  none
improper_style  none
neigh_modify exclude none


neighbor        2.0 bin
neigh_modify    every 10 delay 0 check no

thermo          ${out_freq}
thermo          500
thermo_style 	custom step temp pe etotal epair emol press lx ly lz xy xz yz vol pxx pyy pzz pxy pxz pyz cella cellb cellc cellalpha cellbeta cellgamma


restart 	${out_freq} restart.lmp.${pid} restart2.lmp.${pid}
restart 	500 restart.lmp.${pid} restart2.lmp.${pid}
restart 	500 restart.lmp.0 restart2.lmp.${pid}
restart 	500 restart.lmp.0 restart2.lmp.0


include         in.dump
dump            myDump all atom ${out_freq2} dump.water.${pid}
dump            myDump all atom 500 dump.water.${pid}
dump            myDump all atom 500 dump.water.0
dump            myDump2 all dcd ${out_freq2} dump.dcd
dump            myDump2 all dcd 500 dump.dcd
dump_modify     myDump append yes
dump_modify     myDump2 append yes


timer           timeout 23:50:00 every 1000
New timer settings: style=normal  mode=nosync  timeout=23:50:00

fix             2 all nph iso ${pressure} ${pressure} ${pressureDamp}
fix             2 all nph iso 0.986923 ${pressure} ${pressureDamp}
fix             2 all nph iso 0.986923 0.986923 ${pressureDamp}
fix             2 all nph iso 0.986923 0.986923 1
fix             3 all temp/csvr ${temperature} ${temperature} ${tempDamp} ${seed}
fix             3 all temp/csvr 265 ${temperature} ${tempDamp} ${seed}
fix             3 all temp/csvr 265 265 ${tempDamp} ${seed}
fix             3 all temp/csvr 265 265 0.1 ${seed}
fix             3 all temp/csvr 265 265 0.1 745823
velocity 	all create ${temperature} ${seed} dist gaussian
velocity 	all create 265 ${seed} dist gaussian
velocity 	all create 265 745823 dist gaussian

run             2000000

CITE-CITE-CITE-CITE-CITE-CITE-CITE-CITE-CITE-CITE-CITE-CITE-CITE

Your simulation uses code contributions which should be cited:

- USER-DEEPMD package:

@article{Wang_ComputPhysCommun_2018_v228_p178,
  author = {Wang, Han and Zhang, Linfeng and Han, Jiequn and E, Weinan},
  doi = {10.1016/j.cpc.2018.03.016},
  url = {https://doi.org/10.1016/j.cpc.2018.03.016},
  year = 2018,
  month = {jul},
  publisher = {Elsevier {BV}},
  volume = 228,
  journal = {Comput. Phys. Commun.},
  title = {{DeePMD-kit: A deep learning package for many-body potential energy representation and molecular dynamics}},
  pages = {178--184}
}

CITE-CITE-CITE-CITE-CITE-CITE-CITE-CITE-CITE-CITE-CITE-CITE-CITE

Neighbor list info ...
  update every 10 steps, delay 0 steps, check no
  max neighbors/atom: 2000, page size: 100000
  master list distance cutoff = 8
  ghost atom cutoff = 8
  binsize = 4, bins = 5 6 6
  1 neighbor lists, perpetual/occasional/extra = 1 0 0
  (1) pair deepmd, perpetual
      attributes: full, newton on
      pair build: full/bin
      stencil: full/bin/3d
      bin: standard
Per MPI rank memory allocation (min/avg/max) = 7.215 | 7.215 | 7.215 Mbytes
Step Temp PotEng TotEng E_pair E_mol Press Lx Ly Lz Xy Xz Yz Volume Pxx Pyy Pzz Pxy Pxz Pyz Cella Cellb Cellc CellAlpha CellBeta CellGamma 
       0          265    -134.9383   -105.37715    -134.9383            0    24631.313    18.207573    21.446115    22.213196            0            0            0    8673.8466    24502.051    25408.025    23983.864     1102.964   -265.04585   -871.41783    18.207573    21.446115    22.213196           90           90           90 
     500     257.3709   -127.61867    -98.90856   -127.61867            0   -3523.3291    18.382036    21.651609     22.42604            0            0            0    8925.5784   -1151.8384   -5566.1449    -3852.004    1084.6392   -1275.1079   -588.72844    18.382036    21.651609     22.42604           90           90           90 
    1000    268.69512   -125.64611   -95.672768   -125.64611            0    1706.9817     18.44591    21.726844    22.503966            0            0            0    9018.9462    -229.0151    2690.7342    2659.2259   -1509.5756    695.73258   -864.97802     18.44591    21.726844    22.503966           90           90           90 
    1500     259.4309   -126.58256   -97.642654   -126.58256            0    1521.9993    18.413052    21.688142     22.46388            0            0            0    8970.8352    1904.7697    29.645833    2631.5823   -420.44681    864.70906    58.298574    18.413052    21.688142     22.46388           90           90           90 
    2000    262.37758   -124.56266   -95.294045   -124.56266            0   -1911.6801    18.394726    21.666557    22.441523            0            0            0    8944.0776   -1024.7676   -3277.0758   -1433.1969    1230.1187   -286.13976    -61.28743    18.394726    21.666557    22.441523           90           90           90 
    2500    274.52139   -124.62989   -94.006615   -124.62989            0    891.39622    18.362904    21.629074    22.402699            0            0            0    8897.7383    1702.3514    115.22147    856.61574   -908.93759    -490.4979   -2253.0715    18.362904    21.629074    22.402699           90           90           90 
    3000    265.29113   -124.18659    -94.59297   -124.18659            0   -1306.9346    18.402017    21.675145    22.450418            0            0            0     8954.717   -1127.4727   -1405.1623   -1388.1687    2767.0292    2407.4351     -1488.28    18.402017    21.675145    22.450418           90           90           90 
    3500    270.61852   -126.04301   -95.855112   -126.04301            0    1580.3916    18.240403    21.484784    22.253248            0            0            0    8720.8503    1581.6614    1771.2448    1388.2687   -195.52002    2013.9723    893.24798    18.240403    21.484784    22.253248           90           90           90 
    4000    252.42661   -125.08004   -96.921466   -125.08004            0   -39.672851    18.233794       21.477    22.245185            0            0            0    8711.3745   -1136.9977    996.03046     21.94871   -2161.8454   -1327.8332   -1772.6774    18.233794       21.477    22.245185           90           90           90 
    4500    264.44212   -125.41115   -95.912231   -125.41115            0   -1320.2584    18.261589    21.509739    22.279096            0            0            0    8751.2739     2899.181   -3156.9258   -3703.0303    816.53414    1469.6306     123.1881    18.261589    21.509739    22.279096           90           90           90 
    5000    265.05551   -124.67682   -95.109481   -124.67682            0   -2208.0003    18.205184    21.443301    22.210281            0            0            0    8670.4324   -424.39817   -4390.1369   -1809.4657    433.62451     515.2024   -1789.9484    18.205184    21.443301    22.210281           90           90           90 
    5500    256.14481   -124.64856   -96.075223   -124.64856            0    1519.6456    18.134961    21.360588    22.124609            0            0            0    8570.4857    1066.5177    756.99785    2735.4213    1751.2886    600.57197    425.72941    18.134961    21.360588    22.124609           90           90           90 
    6000    265.76963   -125.10456   -95.457558   -125.10456            0    346.05465    18.117773    21.340342     22.10364            0            0            0    8546.1395    1256.8023    654.61697   -873.25531    862.50592   -1223.1045   -1650.8289    18.117773    21.340342     22.10364           90           90           90 
    6500    245.52237   -122.82586   -95.437469   -122.82586            0   -1097.9362    18.254176    21.501008    22.270052            0            0            0    8740.6209    153.94397    1114.4669   -4562.2195    -390.7358   -546.89964   -1089.0672    18.254176    21.501008    22.270052           90           90           90 
    7000    273.76092   -123.30369   -92.765245   -123.30369            0    543.15812    18.221725    21.462784    22.230461            0            0            0    8694.0878    773.12936   -844.84653    1701.1915    1503.3984    176.70372   -323.84134    18.221725    21.462784    22.230461           90           90           90 
    7500    268.62547   -122.70324   -92.737667   -122.70324            0   -1705.0611      18.1652    21.396206    22.161502            0            0            0    8613.4302   -1796.3884   -1239.7724   -2079.0224   -309.63643    532.91254    335.37796      18.1652    21.396206    22.161502           90           90           90 
    8000    265.88782   -124.27009   -94.609899   -124.27009            0    1652.1528    18.142068    21.368959     22.13328            0            0            0    8580.5659    4353.5695   -830.93243    1433.8212   -574.69385    47.712586    3316.4856    18.142068    21.368959     22.13328           90           90           90 
    8500    264.69049   -124.62932   -95.102702   -124.62932            0    1010.8412    18.148528    21.376568    22.141162            0            0            0    8589.7357    981.12526   -641.40505    2692.8035    1010.4842    617.37332   -788.13603    18.148528    21.376568    22.141162           90           90           90 
    9000    266.93975   -123.49015   -93.712619   -123.49015            0   -2398.0562    18.114787    21.336826    22.099998            0            0            0    8541.9155   -3690.7253   -4517.6771    1014.2339    1971.3389   -1286.8572   -341.56134    18.114787    21.336826    22.099998           90           90           90 
    9500    272.01167   -123.86771   -93.524402   -123.86771            0    2507.2554    18.018483    21.223392    21.982506            0            0            0    8406.4033    2668.1265    2893.4319    1960.2077    336.90627   -3150.6625   -1791.2651    18.018483    21.223392    21.982506           90           90           90 
   10000    271.71101    -123.0217   -92.711931    -123.0217            0   -671.85016     18.10364    21.323695    22.086398            0            0            0    8526.1555   -1560.1597    975.10466   -1430.4955    977.53383   -289.42904   -535.77506     18.10364    21.323695    22.086398           90           90           90 
   10500     284.8202   -122.74433   -90.972205   -122.74433            0   -1845.0035    18.128687    21.353198    22.116956            0            0            0     8561.594   -576.15603    -2453.405   -2505.4494   -1769.0526    -1325.839   -1170.4732    18.128687    21.353198    22.116956           90           90           90 
   11000     272.4224   -122.03644   -91.647316   -122.03644            0   -1039.8065    18.118351    21.341024    22.104346            0            0            0    8546.9584   -1195.5504   -684.23329   -1239.6359    1553.1553    332.00316    573.34122    18.118351    21.341024    22.104346           90           90           90 
   11500    273.27775    -123.8346   -93.350053    -123.8346            0    -731.2748    17.957923    21.152061    21.908624            0            0            0    8321.9268   -1495.8435   -3553.3766    2855.3957   -1323.8043    649.71978    -2574.374    17.957923    21.152061    21.908624           90           90           90 
   12000    272.33013   -123.10498   -92.726147   -123.10498            0    325.10882    17.965937      21.1615    21.918401            0            0            0    8333.0727    1532.1477    637.10657   -1193.9278   -37.649582    632.99927    1188.4025    17.965937      21.1615    21.918401           90           90           90 
   12500    265.97231   -121.74037   -92.070753   -121.74037            0   -2543.9513    18.103065    21.323019    22.085697            0            0            0    8525.3439   -1178.6149   -2086.4106   -4366.8285    1610.2227    1599.8064   -1835.7726    18.103065    21.323019    22.085697           90           90           90 
   13000    287.31351   -123.86301   -91.812756   -123.86301            0   -2488.8435    18.043246    21.252559    22.012717            0            0            0    8441.1096   -3471.7695   -990.64444   -3004.1167   -1862.4398    195.50628   -2792.3362    18.043246    21.252559    22.012717           90           90           90 
   13500    249.68085   -122.11678   -94.264503   -122.11678            0   -406.81981    18.137503    21.363582    22.127711            0            0            0    8574.0907    946.89213    -747.4661   -1419.8854   -2804.3593    8.4998817   -2560.8195    18.137503    21.363582    22.127711           90           90           90 
   14000    260.86326   -123.23476   -94.135068   -123.23476            0   -443.06948    18.067292    21.280882    22.042053            0            0            0    8474.9031    1334.1425    -2167.521   -495.82991    1530.5712    86.298098    2476.9867    18.067292    21.280882    22.042053           90           90           90 
   14500    260.86367   -124.90195   -95.802213   -124.90195            0   -651.98418    17.989626    21.189402    21.947301            0            0            0    8366.0792     118.0022   -559.41267   -1514.5421    3036.6328    1778.9893   -1591.4032    17.989626    21.189402    21.947301           90           90           90 
   15000     263.9804   -123.76593   -94.318524   -123.76593            0    692.01266    18.051727     21.26255    22.023065            0            0            0    8453.0193   -117.13558    2242.5719   -49.398335    1864.3707    1662.1658    1255.1605    18.051727     21.26255    22.023065           90           90           90 
   15500    258.09035   -122.99822   -94.207848   -122.99822            0   -741.98547    18.179548    21.413105    22.179006            0            0            0     8633.856   -1935.7467     1286.798   -1577.0077    1452.0889   -1537.0819   -1938.5813    18.179548    21.413105    22.179006           90           90           90 
   16000    260.34442   -122.96581   -93.923994   -122.96581            0    805.81628    18.104215    21.324373      22.0871            0            0            0    8526.9685    4416.8606   -3399.0122    1399.6005   -1258.1781    268.57891    3958.3012    18.104215    21.324373      22.0871           90           90           90 
   16500    271.05356   -125.27165   -95.035223   -125.27165            0   -2020.1907    18.047763     21.25788    22.018228            0            0            0    8447.4516   -3692.6621   -2273.7869   -94.122983   -1924.6903    1472.0262    445.42445    18.047763     21.25788    22.018228           90           90           90 
   17000    269.13425   -123.96901   -93.946677   -123.96901            0    916.43473    18.072278    21.286756    22.048137            0            0            0    8481.9223    598.97289    806.63817    1343.6931   -766.09593    1471.6245    295.40264    18.072278    21.286756    22.048137           90           90           90 
   17500    260.84646   -122.97804   -93.880222   -122.97804            0   -790.18892    18.235171    21.478622    22.246866            0            0            0    8713.3487   -1983.6107    435.56206   -822.51814   -41.304155   -145.09523    2484.8848    18.235171    21.478622    22.246866           90           90           90 
   18000    271.73909   -126.08833   -95.775424   -126.08833            0    1921.2826    18.098461    21.317595     22.08008            0            0            0    8518.8407   -284.64386    4766.3195    1282.1723    769.29237   -2355.2838    -520.1792    18.098461    21.317595     22.08008           90           90           90 
   18500    258.22446   -123.59218   -94.786857   -123.59218            0   -3546.4599    18.055831    21.267383    22.028071            0            0            0    8458.7848    -4981.321   -2913.2569   -2744.8017   -241.86149   -659.27534   -537.74536    18.055831    21.267383    22.028071           90           90           90 
   19000    264.74058   -123.99572    -94.46351   -123.99572            0     4149.171    18.090983    21.308787    22.070956            0            0            0    8508.2853    4857.8056    1809.7921    5779.9154    -198.7704   -844.73168    9.0932431    18.090983    21.308787    22.070956           90           90           90 
   19500    273.55896   -124.42971   -93.913791   -124.42971            0    47.719989    18.150789    21.379231     22.14392            0            0            0    8592.9459    2937.0543   -2197.1152   -596.77916   -853.61555    462.78031    -1230.252    18.150789    21.379231     22.14392           90           90           90 
   20000    253.05044   -124.43402   -96.205858   -124.43402            0   -3542.2744    18.144566    21.371901    22.136328            0            0            0    8584.1111   -1428.9348    -4311.117   -4886.7713   -442.34978   -31.017054   -24.088525    18.144566    21.371901    22.136328           90           90           90 
   20500    272.80699   -126.55328   -96.121249   -126.55328            0     151.8348    18.055992    21.267573    22.028267            0            0            0    8459.0116   -658.11761    1328.8035   -215.18153   -15.292179    1483.0713   -215.32106    18.055992    21.267573    22.028267           90           90           90 
   21000    261.90884   -126.52894   -97.312612   -126.52894            0   -330.27235    18.106492    21.327055    22.089877            0            0            0     8530.186    185.09833     984.3423   -2160.2577    3890.5027     480.3637   -148.36044    18.106492    21.327055    22.089877           90           90           90 
   21500    248.89616    -125.4739   -97.709164    -125.4739            0   -118.33939    18.042582    21.251777    22.011907            0            0            0    8440.1783    492.60551   -1415.6237    568.00002    1905.5761    1392.3536     -1402.73    18.042582    21.251777    22.011907           90           90           90 
   22000    262.22827   -125.34527    -96.09331   -125.34527            0    426.23572    17.918736    21.105903    21.860816            0            0            0    8267.5661    2304.7918    37.264239   -1063.3489   -1984.2473    337.74144    2762.5005    17.918736    21.105903    21.860816           90           90           90 
   22500    259.16343   -125.42761   -96.517541   -125.42761            0   -2435.7315    18.092036    21.310028    22.072241            0            0            0    8509.7715   -3642.9991    297.19282   -3961.3882    -438.4645   -1216.2488    1285.2861    18.092036    21.310028    22.072241           90           90           90 
   23000    259.83728     -126.107   -97.121761     -126.107            0   -2622.7958    18.038426    21.246882    22.006837            0            0            0    8434.3471    -808.0666    -4212.345   -2847.9759    -1747.579     722.3419   -1438.5806    18.038426    21.246882    22.006837           90           90           90 
   23500    271.76945   -126.06872   -95.752424   -126.06872            0   -821.75898    18.044443    21.253969    22.014178            0            0            0    8442.7902   -1033.4243   -566.40119    -865.4515    576.33974   -1494.0383     238.0061    18.044443    21.253969    22.014178           90           90           90 
   24000    271.07827   -124.24885   -94.009661   -124.24885            0   -344.27335     18.07197    21.286392     22.04776            0            0            0    8481.4873    1129.6427   -1463.6529   -698.80984    3129.8339   -1265.8811   -1822.9048     18.07197    21.286392     22.04776           90           90           90 
   24500    265.98059   -125.16939   -95.498857   -125.16939            0   -396.89628    18.098849    21.318053    22.080553            0            0            0    8519.3892    651.35212    186.41481   -2028.4558   -1020.6301     476.4324   -93.800499    18.098849    21.318053    22.080553           90           90           90 
   25000    277.27144   -124.83059   -93.900547   -124.83059            0   -552.87365    18.026826    21.233219    21.992685            0            0            0    8418.0856    1911.3408   -2725.3976   -844.56415    453.99971    340.40265    -254.3419    18.026826    21.233219    21.992685           90           90           90 
   25500    271.49876   -124.32233    -94.03623   -124.32233            0    1432.3777    18.147253    21.375066    22.139606            0            0            0    8587.9249     3994.038    -244.9771    548.07234     197.4961   -40.954402    515.05182    18.147253    21.375066    22.139606           90           90           90 
   26000    276.80392   -125.45263   -94.574735   -125.45263            0   -497.80001    18.072188    21.286649    22.048026            0            0            0    8481.7946   -891.55209   -4038.5605    3436.7126    369.30421   -528.46133    495.13597    18.072188    21.286649    22.048026           90           90           90 
   26500     263.6969   -125.46048   -96.044695   -125.46048            0    1743.2708    18.006886    21.209732    21.968358            0            0            0    8390.1825    288.92555    1657.8779    3283.0088    -95.11443   -3029.1638   -1069.7937    18.006886    21.209732    21.968358           90           90           90 
   27000    271.86367   -124.97201   -94.645209   -124.97201            0    342.88817     18.11932    21.342164    22.105527            0            0            0    8548.3286    500.26742    2158.6612   -1630.2641    1848.1497    841.93807   -290.34138     18.11932    21.342164    22.105527           90           90           90 
   27500    264.08124   -125.50537   -96.046714   -125.50537            0    450.91244    18.218067    21.458476    22.225999            0            0            0    8688.8534    509.41493   -346.02213    1189.3445   -426.22632   -1419.3166     269.0675    18.218067    21.458476    22.225999           90           90           90 
   28000    259.67818   -126.00302   -97.035524   -126.00302            0     44.23378    18.110503    21.331779     22.09477            0            0            0    8535.8558    -480.2017   -138.96082    751.86386    1650.4066    7.4920352   -437.87889    18.110503    21.331779     22.09477           90           90           90 
   28500    262.70366   -124.79311   -95.488125   -124.79311            0    344.16535    18.043445    21.252794    22.012961            0            0            0    8441.3901    1150.2505    1271.3414   -1389.0959   -2149.0638    1614.4036    730.70388    18.043445    21.252794    22.012961           90           90           90 
   29000    269.48738   -127.09106   -97.029337   -127.09106            0   -342.97229     18.10537    21.325734    22.088509            0            0            0    8528.6011    324.77706   -1843.2989    489.60499    38.587308   -171.77815   -1622.1097     18.10537    21.325734    22.088509           90           90           90 
   29500    270.21174   -125.27686   -95.134332   -125.27686            0    221.69655     18.14164    21.368455    22.132758            0            0            0    8579.9585   -1988.0858    828.87767    1824.2978    2192.8974   -1187.5571    2391.9648     18.14164    21.368455    22.132758           90           90           90 
   30000    286.02473   -124.72945   -92.822959   -124.72945            0   -3079.3467    18.100874    21.320437    22.083023            0            0            0    8522.2482   -2150.7105   -6527.1907   -560.13886    137.21726    839.07898   -1434.6227    18.100874    21.320437    22.083023           90           90           90 
   30500    275.63871   -125.50375   -94.755839   -125.50375            0    796.60833    18.062711    21.275486    22.036464            0            0            0     8468.458    1146.5612    117.37036    1125.8934   -1677.6925   -839.75866     258.6208    18.062711    21.275486    22.036464           90           90           90 
   31000    275.44378   -125.26872   -94.542553   -125.26872            0    991.96101    18.151245    21.379768    22.144476            0            0            0    8593.5941    -333.9053    586.89393    2722.8944   -757.17696    1484.1726    241.37761    18.151245    21.379768    22.144476           90           90           90 
   31500    267.25176   -124.28287   -94.470534   -124.28287            0    689.40142     18.10874    21.329702     22.09262            0            0            0    8533.3634    2286.2477   -491.72483    273.68138    1915.5241   -224.90773   -296.62861     18.10874    21.329702     22.09262           90           90           90 
   32000    262.03506   -124.92244   -95.692035   -124.92244            0   -1533.3595    18.001774    21.203711    21.962122            0            0            0    8383.0386   -2472.5289   -1578.3711   -549.17862    -2184.803   -297.47239    956.75813    18.001774    21.203711    21.962122           90           90           90 
   32500    265.53619   -125.51842   -95.897455   -125.51842            0    749.00111    18.035207    21.243091     22.00291            0            0            0    8429.8329    1639.7563    375.52795    231.71904    382.09405   -586.04618   -3234.0649    18.035207    21.243091     22.00291           90           90           90 
   33000    275.21401   -126.06503   -95.364494   -126.06503            0   -238.39407    18.100257    21.319711    22.082271            0            0            0    8521.3777    735.37058   -411.00386   -1039.5489    1704.0031    1556.4924    1193.2641    18.100257    21.319711    22.082271           90           90           90 
   33500    258.96006   -124.49313   -95.605745   -124.49313            0    878.74814    18.011508    21.215177    21.973997            0            0            0    8396.6452    2380.5234    872.73658   -617.01553     3133.495    602.32265    574.75244    18.011508    21.215177    21.973997           90           90           90 
   34000    262.56844   -126.61321   -97.323304   -126.61321            0   -3136.8643    18.010571    21.214073    21.972854            0            0            0    8395.3347   -4018.7065   -3050.4753    -2341.411   -9.7858277   -130.73702    1243.7869    18.010571    21.214073    21.972854           90           90           90 
   34500    253.53308   -126.69242   -98.410428   -126.69242            0   -1060.1973    18.019108    21.224128    21.983269            0            0            0    8407.2784    94.542136   -1363.1891   -1911.9451    694.30765     532.5578     3426.323    18.019108    21.224128    21.983269           90           90           90 
   35000    255.32503   -127.39003   -98.908143   -127.39003            0   -1225.8809    18.003056    21.205221    21.963686            0            0            0      8384.83    -873.3268    705.95494   -3510.2709    88.275212    1043.7705   -1733.6733    18.003056    21.205221    21.963686           90           90           90 
   35500     267.9401   -127.79686    -97.90774   -127.79686            0   -2139.6303    18.030373    21.237397    21.997013            0            0            0    8423.0567   -2911.0862   -2035.3433   -1472.4614    908.18985    1310.5679   -46.962231    18.030373    21.237397    21.997013           90           90           90 
   36000    265.18079    -126.6679   -97.086581    -126.6679            0    1325.1169    18.086156    21.303102    22.065068            0            0            0    8501.4769    4245.5245   -205.53199   -64.641962   -3221.1699   -1291.4461    460.14928    18.086156    21.303102    22.065068           90           90           90 
   36500    275.15096   -127.05784   -96.364332   -127.05784            0    1152.4264    18.044401     21.25392    22.014127            0            0            0    8442.7314   -599.17513    1604.1777    2452.2765   -1922.5483   -382.23758   -479.67179    18.044401     21.25392    22.014127           90           90           90 
   37000     258.4683   -125.29395   -96.461418   -125.29395            0   -723.95949    18.088009    21.305284    22.067328            0            0            0    8504.0898   -742.58556   -497.63238   -931.66054     3738.562   -538.82967    1281.3738    18.088009    21.305284    22.067328           90           90           90 
   37500    265.86863   -126.11404   -96.455993   -126.11404            0     1314.809    18.085686    21.302548    22.064494            0            0            0    8500.8135    2072.1547    1407.7296    464.54276   -1184.5617    912.15115   -915.75785    18.085686    21.302548    22.064494           90           90           90 
   38000    272.27092   -125.34229   -94.970058   -125.34229            0   -2034.3862    18.027123    21.233569    21.993048            0            0            0    8418.5022   -1913.8649   -2476.7835   -1712.5103    1384.0368    1262.8484    2480.7256    18.027123    21.233569    21.993048           90           90           90 
   38500    261.59338   -124.25225   -95.071116   -124.25225            0    939.55599    18.060054    21.272357    22.033223            0            0            0    8464.7217    352.93963    752.45443    1713.2739     19.13618   -450.68504    655.38112    18.060054    21.272357    22.033223           90           90           90 
   39000    276.29718    -127.2419   -96.420534    -127.2419            0    1439.9376    18.052456    21.263408    22.023954            0            0            0    8454.0429    2939.5971    362.21418    1018.0016     1952.469   -705.15025   -1437.8814    18.052456    21.263408    22.023954           90           90           90 
   39500    267.79993   -125.74401   -95.870525   -125.74401            0     363.9957    18.004949     21.20745    21.965995            0            0            0    8387.4746    1210.6183   -546.53243    427.90127   -1378.8067   -1653.1626   -469.86802    18.004949     21.20745    21.965995           90           90           90 
   40000    261.95787   -125.72523   -96.503439   -125.72523            0    209.88495    18.183421    21.417667    22.183731            0            0            0    8639.3756    1298.4831    140.92697   -809.75525    968.31476   -3847.0626    1082.1918    18.183421    21.417667    22.183731           90           90           90 
   40500    260.56598   -126.19727   -97.130748   -126.19727            0    -2528.651    18.299131    21.553959    22.324897            0            0            0    8805.3574    264.46314   -5440.7048   -2409.7114    2147.3362    1920.5294    102.54824    18.299131    21.553959    22.324897           90           90           90 
   41000    267.41146   -126.70153   -96.871376   -126.70153            0    234.03107    18.092398    21.310454    22.072682            0            0            0    8510.2816    75.877142   -2592.6572    3218.8733     91.61322   -2578.9435   -524.78743    18.092398    21.310454    22.072682           90           90           90 
   41500    274.05656   -127.71545   -97.144033   -127.71545            0    -316.3771    18.084289    21.300903     22.06279            0            0            0     8498.845    1016.0048    723.82595   -2688.9621   -422.57278    -2300.942    845.13744    18.084289    21.300903     22.06279           90           90           90 
   42000    266.55428    -126.0132   -96.278669    -126.0132            0    275.22782    18.098897    21.318109    22.080612            0            0            0    8519.4564   -4055.4984    1933.3986    2947.7833    137.69608    1341.7863    590.54214    18.098897    21.318109    22.080612           90           90           90 
   42500    267.05922   -125.25553   -95.464667   -125.25553            0    400.26959    18.121795     21.34508    22.108547            0            0            0    8551.8332    712.62263    1384.4023   -896.21613    926.47911    274.86253    593.88795    18.121795     21.34508    22.108547           90           90           90 
   43000    272.25572   -125.21033   -94.839793   -125.21033            0    1064.5751    18.176679    21.409726    22.175506            0            0            0    8629.7694   -41.995452   -814.76697    4050.4876   -771.69236    2774.8029   -3585.6703    18.176679    21.409726    22.175506           90           90           90 
   43500    270.77599   -126.23745   -96.031977   -126.23745            0    59.721895    18.112298    21.333894    22.096961            0            0            0    8538.3948   -1147.3123   -408.05665    1734.5347   -865.98241   -111.86362   -1907.4071    18.112298    21.333894    22.096961           90           90           90 
   44000    268.46206   -126.45663   -96.509279   -126.45663            0    1044.5802    18.199421    21.436512     22.20325            0            0            0    8662.2007    3920.4563   -1054.8338    268.11809   -885.92982   -1180.6615    534.81125    18.199421    21.436512     22.20325           90           90           90 
   44500    265.53513    -125.2094   -95.588559    -125.2094            0   -1110.0364    18.216826    21.457014    22.224484            0            0            0    8687.0772   -2331.9582    523.57713    -1521.728   -1305.6624    16.508473   -907.93282    18.216826    21.457014    22.224484           90           90           90 
   45000    256.70748   -126.92956   -98.293451   -126.92956            0   -186.47251    18.234718    21.478089    22.246313            0            0            0    8712.6996   -2036.7959   -629.20469     2106.583    281.14807   -2259.4208    227.20662    18.234718    21.478089    22.246313           90           90           90 
   45500    251.38206   -125.70266   -97.660617   -125.70266            0    664.26703    18.165579    21.396651    22.161963            0            0            0    8613.9685    2267.7092   -658.85419    383.94608    2125.2306   -32.771108   -473.03887    18.165579    21.396651    22.161963           90           90           90 
   46000    263.79116   -126.39388   -96.967584   -126.39388            0    832.59765       18.225    21.466642    22.234457            0            0            0    8698.7765    258.71484    3544.8102   -1305.7321    1585.8199     651.9151     -2368.59       18.225    21.466642    22.234457           90           90           90 
   46500    262.26324   -125.81494   -96.559086   -125.81494            0   -977.67455    18.193088    21.429053    22.195524            0            0            0    8653.1615    104.46621   -1615.7756   -1421.7143   -115.71902   -1276.7612    439.34914    18.193088    21.429053    22.195524           90           90           90 
   47000    259.52919   -126.16646   -97.215593   -126.16646            0   -584.92193    18.115278    21.337403    22.100596            0            0            0    8542.6091   -333.40012   -2746.6079    1325.2422    956.48567    927.51741     1440.173    18.115278    21.337403    22.100596           90           90           90 
   47500    267.13488   -126.57685   -96.777548   -126.57685            0    -736.2254    18.164996    21.395965    22.161252            0            0            0    8613.1398     339.2561     953.0019   -3500.9342    277.28677    -2065.277   -2787.9402    18.164996    21.395965    22.161252           90           90           90 
   48000    261.94736    -125.8047   -96.584083    -125.8047            0   -987.93713    18.243811    21.488798    22.257406            0            0            0    8725.7395   -3898.5698    996.28985   -61.531423    -364.2317    -1188.983   -298.17157    18.243811    21.488798    22.257406           90           90           90 
   48500     262.3814   -125.97592   -96.706878   -125.97592            0   -109.75812    18.132492    21.357679    22.121597            0            0            0    8566.9853    -636.2619   -489.28045      796.268   -929.02596    1222.3817   -1113.6083    18.132492    21.357679    22.121597           90           90           90 
   49000    269.27291   -125.33606   -95.298265   -125.33606            0   -941.27296    18.177771    21.411012    22.176837            0            0            0     8631.324   -1637.3486   -1125.4782   -60.991998   -370.57908    -99.82286    769.48095    18.177771    21.411012    22.176837           90           90           90 
   49500    283.24315   -124.11993   -92.523733   -124.11993            0   -488.47749    18.301843    21.557153    22.328206            0            0            0    8809.2728   -1020.4157    1596.8052   -2041.8219   -820.34459    -747.6062   -310.16246    18.301843    21.557153    22.328206           90           90           90 
   50000    272.46602   -124.91303   -94.519038   -124.91303            0   -569.36167    18.188204      21.4233    22.189565            0            0            0    8646.1941   -705.30886   -1084.3067     81.53052   -1216.5345   -458.91641    131.47253    18.188204      21.4233    22.189565           90           90           90 
   50500    255.74773   -124.59039   -96.061349   -124.59039            0    618.84036    18.107184     21.32787    22.090722            0            0            0    8531.1644    229.33861   -1167.3973    2794.5798    734.16272   -3547.1275   -1235.6342    18.107184     21.32787    22.090722           90           90           90 
   51000    260.24731    -124.2864   -95.255424    -124.2864            0    56.196391    18.061484    21.274042    22.034968            0            0            0     8466.733   -1574.3554    1204.4593     538.4853     30.74347    76.071558    958.48181    18.061484    21.274042    22.034968           90           90           90 
   51500    261.70087   -125.80739    -96.61426   -125.80739            0     557.3674    18.299412     21.55429     22.32524            0            0            0     8805.763   -1652.6314    794.01274    2530.7209   -589.56123   -2070.6856    643.68434    18.299412     21.55429     22.32524           90           90           90 
   52000    261.49346   -127.18425   -98.014262   -127.18425            0   -246.25271    18.308153    21.564585    22.335904            0            0            0    8818.3876   -851.38351    469.77836   -357.15298    1497.9284    3022.4921    1323.6187    18.308153    21.564585    22.335904           90           90           90 
   52500    282.26933   -127.16291   -95.675341   -127.16291            0    1025.9559    18.041062    21.249988    22.010053            0            0            0    8438.0459     3364.433   -2312.1765    2025.6113    372.60177   -346.12705    -2250.123    18.041062    21.249988    22.010053           90           90           90 
   53000    269.95226   -127.72588     -97.6123   -127.72588            0    2881.6592    18.193423    21.429448    22.195933            0            0            0    8653.6391    2495.3751    3371.8708    2777.7317    1487.2415   -640.85858   -133.23404    18.193423    21.429448    22.195933           90           90           90 
   53500     259.1406   -126.28893   -97.381402   -126.28893            0   -1214.0293    18.196122    21.432627    22.199226            0            0            0    8657.4917   -1722.7379   -1831.1825   -88.167494   -324.69584    1946.6642   -1175.9432    18.196122    21.432627    22.199226           90           90           90 
   54000    268.74794   -126.24118   -96.261946   -126.24118            0    1300.4006    18.203451     21.44126    22.208167            0            0            0    8667.9572    1015.5789    2232.1853     653.4374    1109.4877    705.24926    2371.2491    18.203451     21.44126    22.208167           90           90           90 
   54500    251.07271   -127.11607   -99.108535   -127.11607            0    -2008.092    18.215965    21.455999    22.223434            0            0            0    8685.8452   -1092.3703   -3070.2226    -1861.683    63.785645   -1511.1504    -1908.132    18.215965    21.455999    22.223434           90           90           90 
   55000    258.54555    -126.3594   -97.518253    -126.3594            0    3371.3659    18.156674    21.386162    22.151099            0            0            0    8601.3067    3842.5175    2579.8214    3691.7587   -714.45434    767.68738   -505.62248    18.156674    21.386162    22.151099           90           90           90 
   55500    261.22808   -127.10822   -97.967832   -127.10822            0   -1557.2075    18.247685    21.493361    22.262132            0            0            0    8731.2992    320.02247   -2659.5421    -2332.103    -3767.964   -1462.2493    -579.1827    18.247685    21.493361    22.262132           90           90           90 
   56000    256.98914   -124.74463     -96.0771   -124.74463            0     219.3568    18.172132     21.40437    22.169958            0            0            0    8623.2946   -9.3535273    574.12384    93.300083   -2692.3289    401.30414    388.42371    18.172132     21.40437    22.169958           90           90           90 
   56500    270.01141   -125.24515   -95.124967   -125.24515            0   -1514.9854    18.136663    21.362593    22.126686            0            0            0    8572.8995   -1149.2025    -2622.124   -773.62973    433.45943   -283.33973    782.73267    18.136663    21.362593    22.126686           90           90           90 
   57000    272.45711   -126.28651   -95.893505   -126.28651            0   -881.59067    18.152508    21.381256    22.146017            0            0            0    8595.3876     -2099.06    1700.0373   -2245.7494   -289.65802    1156.3934    313.19702    18.152508    21.381256    22.146017           90           90           90 
   57500    266.29508   -125.74542   -96.039803   -125.74542            0    3645.0033    18.072366    21.286859    22.048243            0            0            0     8482.045    3190.2448    5120.9202    2623.8447      2853.23    662.01877     893.8521    18.072366    21.286859    22.048243           90           90           90 
   58000    263.97923   -125.76852   -96.321242   -125.76852            0   -845.53989    18.145196    21.372643    22.137096            0            0            0    8585.0044   -2417.7004    -1012.204    893.28469   -1663.9658    -3396.929   -1299.6053    18.145196    21.372643    22.137096           90           90           90 
   58500    260.47343   -126.22904   -97.172842   -126.22904            0    608.90411    18.188961    21.424193     22.19049            0            0            0    8647.2749    5727.4879   -3683.9625   -216.81308    -1109.901   -326.10627    -981.6762    18.188961    21.424193     22.19049           90           90           90 
   59000    268.48488   -126.31101   -96.361114   -126.31101            0   -1222.2401    18.095102    21.313639    22.075982            0            0            0    8514.0984   -1346.2796   -3443.6776    1123.2369    312.79529    1343.9125    486.10767    18.095102    21.313639    22.075982           90           90           90 
   59500    261.25178   -125.43693   -96.293896   -125.43693            0    603.96863    18.153893    21.382888    22.147707            0            0            0     8597.356    4363.1407   -1565.8423   -985.39252    495.82002    3103.0006     3777.074    18.153893    21.382888    22.147707           90           90           90 
   60000    256.22296   -125.20911   -96.627053   -125.20911            0     1406.491    18.133169    21.358477    22.122424            0            0            0    8567.9459    897.54749    2283.1289    1038.7966   -1447.8635   -2525.9272    623.37904    18.133169    21.358477    22.122424           90           90           90 
   60500    257.83207   -125.67132   -96.909767   -125.67132            0    352.41095    18.152588     21.38135    22.146114            0            0            0    8595.5009    1017.1855    269.99696    -229.9496    44.417792    1335.4258    1338.2849    18.152588     21.38135    22.146114           90           90           90 
   61000    257.55417   -124.85061   -96.120054   -124.85061            0    1985.8235    18.217082    21.457316    22.224797            0            0            0     8687.444    1465.6362    1911.0389    2580.7954    805.76928   -746.48278    570.52866    18.217082    21.457316    22.224797           90           90           90 
   61500    265.45408   -125.38118   -95.769377   -125.38118            0   -705.00315    18.187158    21.422069     22.18829            0            0            0    8644.7029    2224.2698   -40.411241    -4298.868   -2502.7609    199.41665    1596.5146    18.187158    21.422069     22.18829           90           90           90 
   62000    258.18344   -124.20914   -95.408386   -124.20914            0    2053.5545    18.115918    21.338158    22.101377            0            0            0    8543.5154   -510.87453    4479.3746    2192.1633    2850.5563    701.12378   -1367.4636    18.115918    21.338158    22.101377           90           90           90 
   62500    251.56973   -123.66879   -95.605808   -123.66879            0   -611.06494    18.031936    21.239238    21.998919            0            0            0    8425.2467   -1423.2275    523.48769   -933.45503    846.67573    2789.8321    839.63805    18.031936    21.239238    21.998919           90           90           90 
   63000    268.68205   -123.24196    -93.27007   -123.24196            0   -339.10386    18.126206    21.350275    22.113928            0            0            0     8558.079   -1190.1927    1987.6586   -1814.7775   -3357.3828    1328.2334   -3748.4796    18.126206    21.350275    22.113928           90           90           90 
   63500    262.26152   -124.62675   -95.371082   -124.62675            0   -1466.2809    18.150745    21.379179    22.143866            0            0            0     8592.883   -895.22709   -1351.4337   -2152.1818   -5.3618258    -261.2024   -1853.1902    18.150745    21.379179    22.143866           90           90           90 
   64000    267.56125   -123.75878   -93.911917   -123.75878            0   -909.97751    18.007784     21.21079    21.969454            0            0            0    8391.4377    -2666.999    2664.8706   -2727.8042   -2055.5427   -2275.9375   -2261.3594    18.007784     21.21079    21.969454           90           90           90 
   64500    272.59188   -125.67692   -95.268881   -125.67692            0   -808.81381    18.138594    21.364867    22.129042            0            0            0    8575.6379    -610.1325     555.2357   -2371.5446   -5.0721999    2027.1689    -1189.413    18.138594    21.364867    22.129042           90           90           90 
   65000    262.98739   -126.34569   -97.009053   -126.34569            0    792.71283     18.15369    21.382648    22.147459            0            0            0    8597.0665    -165.0679   -340.12116    2883.3275   -356.42025    1425.6598    396.82761     18.15369    21.382648    22.147459           90           90           90 
   65500    265.62981   -126.19096   -96.559552   -126.19096            0   -2589.7126    18.105449    21.325827    22.088605            0            0            0    8528.7123   -680.74336   -2725.0428   -4363.3516    632.05975   -285.56863   -416.68387    18.105449    21.325827    22.088605           90           90           90 
   66000    264.05684   -124.66571    -95.20977   -124.66571            0    2020.9262    18.036978    21.245176     22.00507            0            0            0    8432.3159    2351.4189    4474.7838   -763.42419     408.6361    577.40709    171.84565    18.036978    21.245176     22.00507           90           90           90 
   66500    264.99832    -124.4664   -94.905437    -124.4664            0    -2276.109    18.115456    21.337613    22.100813            0            0            0    8542.8613    -130.9734   -2390.7432   -4306.6104   -1020.6368   -1048.3745   -305.17933    18.115456    21.337613    22.100813           90           90           90 
   67000    252.21635   -124.39121   -96.256095   -124.39121            0    1198.8809    18.114079    21.335991    22.099134            0            0            0    8540.9138    177.56418    2286.2392    1132.8393    2067.5249   -631.71186   -907.89797    18.114079    21.335991    22.099134           90           90           90 
   67500    268.06417   -126.73141   -96.828449   -126.73141            0    946.03828    17.994442    21.195075    21.953177            0            0            0    8372.8005    966.56748    1273.2793    598.26809    29.121496   -378.00174    235.44067    17.994442    21.195075    21.953177           90           90           90 
   68000    264.42726   -127.22558   -97.728322   -127.22558            0   -98.872658    18.024792    21.230823    21.990203            0            0            0    8415.2362    1666.2514    242.50654   -2205.3759     979.8827   -283.93241   -1711.8425    18.024792    21.230823    21.990203           90           90           90 
   68500    263.11968   -125.09267   -95.741272   -125.09267            0   -297.99302    18.047848     21.25798    22.018332            0            0            0    8447.5704   -115.37203    1091.4914   -1870.0985    1140.2518   -1021.6209   -1036.9365    18.047848     21.25798    22.018332           90           90           90 
   69000    273.73808   -128.62435   -98.088459   -128.62435            0   -866.29099     18.01037    21.213836    21.972609            0            0            0    8395.0533   -272.16849   -2067.2356   -259.46884   -1996.0028   -185.91869   -199.86421     18.01037    21.213836    21.972609           90           90           90 
   69500    266.38298   -127.62386   -97.908434   -127.62386            0     434.0731    18.150048    21.378358    22.143015            0            0            0    8591.8932    -288.6426    2211.7562   -620.89427     905.3664   -990.82934    1079.3263    18.150048    21.378358    22.143015           90           90           90 
   70000    252.43696   -125.28291   -97.123188   -125.28291            0    239.87146    18.115377    21.337521    22.100718            0            0            0    8542.7505    76.656505    1906.6573   -1263.6995   -1137.2949      494.232   -1083.2247    18.115377    21.337521    22.100718           90           90           90 
   70500    261.91547   -126.26707   -97.050009   -126.26707            0   -2695.9503     18.15068    21.379102    22.143786            0            0            0    8592.7909   -595.31723   -4019.1551   -3473.3785    260.00572    860.74558    2109.0135     18.15068    21.379102    22.143786           90           90           90 
   71000    262.74958   -125.95193   -96.641815   -125.95193            0   0.31280555    18.095297    21.313868    22.076219            0            0            0    8514.3732    766.37578    882.44755   -1647.8849   -87.191892    508.08152    -2569.123    18.095297    21.313868    22.076219           90           90           90 
   71500    267.41865   -126.43887   -96.607913   -126.43887            0    1028.6227    17.984423    21.183273    21.940953            0            0            0    8358.8215    692.37773    2455.2795   -61.789115   -1408.2745   -991.02605    998.73342    17.984423    21.183273    21.940953           90           90           90 
   72000    283.11685   -124.09105   -92.508937   -124.09105            0   -830.88393    18.086837    21.303904    22.065898            0            0            0    8502.4371    11.902679   -2829.0023    324.44782    2593.3664   -1269.0296   -1161.5652    18.086837    21.303904    22.065898           90           90           90 
   72500    272.51933   -124.30574   -93.905798   -124.30574            0    1223.9083    18.140731    21.367384    22.131649            0            0            0    8578.6687    1076.7007    2616.4641   -21.439842    834.05497    3176.9207   -720.55242    18.140731    21.367384    22.131649           90           90           90 
   73000    275.61587    -126.5244   -95.779036    -126.5244            0    562.78668    18.024425    21.230391    21.989756            0            0            0    8414.7226    248.31003    427.53683    1012.5132   -559.48925   -1647.7052    707.33872    18.024425    21.230391    21.989756           90           90           90 
   73500    269.42265   -126.24447   -96.189971   -126.24447            0   -990.35832    17.932287    21.121864    21.877348            0            0            0     8286.337   -2763.5107    464.63232   -672.19653     1701.186    1889.5469    1581.5173    17.932287    21.121864    21.877348           90           90           90 
   74000    255.27907   -125.60769   -97.130921   -125.60769            0   -1132.4833    18.038438    21.246896    22.006851            0            0            0    8434.3637   -3169.0505     2948.777   -3177.1763   -1260.7197     767.7972    89.342852    18.038438    21.246896    22.006851           90           90           90 
   74500    259.93292   -125.82347   -96.827561   -125.82347            0   -2433.9754    17.952719    21.145931    21.902275            0            0            0    8314.6941   -2773.2168    -2836.928   -1691.7813    261.93259     985.1055    358.96365    17.952719    21.145931    21.902275           90           90           90 
   75000    270.93802   -126.95168    -96.72814   -126.95168            0    1572.1758    17.897718    21.081147    21.835174            0            0            0    8238.5077    1772.0823    2115.0176    829.42744   -2587.6731   -2478.7221    1108.4943    17.897718    21.081147    21.835174           90           90           90 
   75500    257.27841   -127.66994   -98.970146   -127.66994            0   -1278.8898    18.032374    21.239754    21.999454            0            0            0    8425.8611   -1351.4061   -1640.5746   -844.68864    1116.9976   -1328.8951   -327.99675    18.032374    21.239754    21.999454           90           90           90 
   76000    258.97091   -125.77727    -96.88868   -125.77727            0   -2418.0118    18.058751    21.270822    22.031634            0            0            0      8462.89   -1802.3089   -2906.4605    -2545.266    898.97112    605.35623    927.85381    18.058751    21.270822    22.031634           90           90           90 
   76500    242.43085   -127.70264   -100.65911   -127.70264            0    1508.2118    17.971164    21.167657    21.924778            0            0            0    8340.3488    1733.4992    1818.6304    972.50593    -2405.361    33.154338    1882.8511    17.971164    21.167657    21.924778           90           90           90 
   77000    255.74465   -128.17543   -99.646732   -128.17543            0   -533.88744    18.035356    21.243266    22.003091            0            0            0     8430.041    2056.9724   -1669.5599   -1989.0749    -1090.354    431.64355    675.78829    18.035356    21.243266    22.003091           90           90           90 
   77500    258.99923   -126.42147   -97.529718   -126.42147            0   -1049.6776    18.013096    21.217047    21.975935            0            0            0    8398.8666   -1473.5478     80.14776   -1755.6327    1470.7772    -137.5873    1405.8899    18.013096    21.217047    21.975935           90           90           90 
   78000    265.65675   -124.67145   -95.037039   -124.67145            0   -92.773505    18.002484    21.204547    21.962987            0            0            0    8384.0302   -419.53024   -3024.6232    3165.8329    3018.2293    644.92264    838.67554    18.002484    21.204547    21.962987           90           90           90 
   78500    258.55674   -127.18581   -98.343412   -127.18581            0    2250.2254    18.027931     21.23452    21.994033            0            0            0    8419.6335    1446.1567   -765.59457     6070.114    769.97805    -2866.908   -2025.6452    18.027931     21.23452    21.994033           90           90           90 
   79000    253.45988   -126.35286   -98.079033   -126.35286            0   -808.37441     18.00295    21.205096    21.963556            0            0            0    8384.6811   -2174.3937   -1089.9866    839.25709   -1622.1921    504.50842   -709.54134     18.00295    21.205096    21.963556           90           90           90 
   79500    271.33548    -125.6413   -95.373418    -125.6413            0      1537.44    17.914442    21.100846    21.855577            0            0            0    8261.6245    986.06898    1761.2676    1864.9836   -1752.8721    1470.9551    2746.4498    17.914442    21.100846    21.855577           90           90           90 
   80000     267.5403   -125.44996   -95.605436   -125.44996            0    716.23066    17.973474    21.170377    21.927596            0            0            0    8343.5645   -330.46691   -34.385053     2513.544    -289.2634    621.69846   -2353.7342    17.973474    21.170377    21.927596           90           90           90 
   80500    259.50676   -124.26409   -95.315717   -124.26409            0    -2982.642    18.057446    21.269285    22.030041            0            0            0     8461.055   -4165.8466    -4054.537   -727.54256   -334.62204    247.19019    3429.9343    18.057446    21.269285    22.030041           90           90           90 
   81000     252.9824   -124.06982   -95.849249   -124.06982            0   -2482.3844    17.945665    21.137622    21.893669            0            0            0    8304.8964   -1710.0861   -2426.0281   -3311.0388   -3670.0994   -2172.3342   -151.54303    17.945665    21.137622    21.893669           90           90           90 
   81500    259.76243   -125.43487    -96.45798   -125.43487            0    2187.6313    18.020413    21.225665    21.984861            0            0            0    8409.1049    777.29844    3022.5234     2763.072    1121.2647    1743.1248   -583.60803    18.020413    21.225665    21.984861           90           90           90 
   82000    260.45334   -126.11744   -97.063482   -126.11744            0   -1128.4363    17.994858    21.195565    21.953684            0            0            0    8373.3807   -1480.5975   -1680.2033   -224.50824    -1253.486   -2596.9471   -797.80106    17.994858    21.195565    21.953684           90           90           90 
   82500    274.51275   -125.07719   -94.454877   -125.07719            0    2349.4129    17.919233    21.106489    21.861422            0            0            0    8268.2539   -209.98039     4213.675     3044.544   -752.64085    1188.4394   -1167.7068    17.919233    21.106489    21.861422           90           90           90 
   83000    262.10464   -124.30415   -95.065981   -124.30415            0   -621.92857    18.106416    21.326965    22.089784            0            0            0    8530.0782    120.54908    -930.2954   -1056.0394    2236.0047    1178.3386    132.28049    18.106416    21.326965    22.089784           90           90           90 
   83500    265.99834    -125.5014   -95.828887    -125.5014            0   -1498.3693    18.097776    21.316789    22.079244            0            0            0    8517.8734   -566.95862    -2381.982   -1546.1674     -281.539   -779.95153    2354.7951    18.097776    21.316789    22.079244           90           90           90 
   84000    275.56523   -125.16136   -94.421641   -125.16136            0   -357.43898    18.041705    21.250745    22.010838            0            0            0     8438.948    83.414327     462.6949   -1618.4262   -173.78046    390.39035   -2369.5922    18.041705    21.250745    22.010838           90           90           90 
   84500    269.31659   -126.01684   -95.974173   -126.01684            0   -1527.1061    18.069729    21.283753    22.045027            0            0            0    8478.3337   -287.21377   -1490.8823   -2803.2222    1116.0234    265.64025   -266.41666    18.069729    21.283753    22.045027           90           90           90 
   85000    265.50543   -126.76518   -97.147645   -126.76518            0   -506.68389    18.137022    21.363015    22.127124            0            0            0    8573.4077     -3038.67    260.06337    1258.5549    1742.0663    441.94695   -1135.9771    18.137022    21.363015    22.127124           90           90           90 
   85500    274.71269   -126.36457   -95.719951   -126.36457            0   -2748.6974     18.10617    21.326676    22.089485            0            0            0    8529.7315    749.24965   -2805.9688    -6189.373    1203.5288   -458.53547   -1286.0585     18.10617    21.326676    22.089485           90           90           90 
   86000     267.6787   -126.88795   -97.027989   -126.88795            0    2018.0202    18.013735    21.217799    21.976714            0            0            0    8399.7597    1416.2214    4539.5096    98.329637    636.19089    730.88384    461.36882    18.013735    21.217799    21.976714           90           90           90 
   86500    267.62335   -127.32655   -97.472766   -127.32655            0   -230.89078    18.042324    21.251474    22.011593            0            0            0    8439.8169    150.36329   -928.54718     85.51155    1852.7152    -1121.306   -4116.9281    18.042324    21.251474    22.011593           90           90           90 
   87000    251.00822   -126.31666   -98.316317   -126.31666            0    2433.4484    18.041485    21.250485    22.010569            0            0            0    8438.6386     4894.513    4445.6671   -2039.8348    1738.8751   -2884.4873   -1102.7905    18.041485    21.250485    22.010569           90           90           90 
   87500    251.95988   -124.24633   -96.139824   -124.24633            0   -2247.6514    18.074975    21.289932    22.051427            0            0            0    8485.7196   -2656.1334   -1820.5165   -2266.3043    -1691.428    1989.2001    1027.8375    18.074975    21.289932    22.051427           90           90           90 
   88000    268.52153   -126.03442   -96.080443   -126.03442            0   -760.76483    18.026032    21.232284    21.991716            0            0            0    8416.9737   -1939.5484    1328.0403   -1670.7864    66.880623   -1270.3311   -475.51325    18.026032    21.232284    21.991716           90           90           90 
   88500    259.97328   -126.39217    -97.39176   -126.39217            0    908.70385    18.062567    21.275317    22.036289            0            0            0    8468.2562    408.63384    337.27726    1980.2004   -341.36228    2366.1776   -399.37773    18.062567    21.275317    22.036289           90           90           90 
   89000     249.0977   -127.14807   -99.360847   -127.14807            0   -655.69082     17.96797    21.163895    21.920881            0            0            0    8335.9025   -2966.3576    1004.4398   -5.1547057    868.84014   -139.56011    968.21158     17.96797    21.163895    21.920881           90           90           90 
   89500    256.65258   -127.45786   -98.827876   -127.45786            0    407.95001    17.982105    21.180543    21.938125            0            0            0    8355.5904    3089.8913    579.80467   -2445.8459   -2003.0634    -397.8372   -424.12465    17.982105    21.180543    21.938125           90           90           90 
   90000    255.89494    -127.3746   -98.829138    -127.3746            0    1954.3864    18.068242    21.282002    22.043213            0            0            0    8476.2404    1101.2243    1896.5885    2865.3463    79.153037    1641.6676    897.49582    18.068242    21.282002    22.043213           90           90           90 
   90500    255.22214    -125.0715   -96.601087    -125.0715            0   -2115.7306    18.032062    21.239386    21.999073            0            0            0    8425.4237    -2177.495   -1006.5004   -3163.1964   -2195.4767    1049.4268    1439.8947    18.032062    21.239386    21.999073           90           90           90 
   91000    271.11304   -125.90837   -95.665303   -125.90837            0   -1791.4722    18.076982    21.292296    22.053875            0            0            0    8488.5462   -3275.2658   -972.86378   -1126.2871    1505.0228    3194.4346   -921.89762    18.076982    21.292296    22.053875           90           90           90 
   91500    256.23584   -126.79263   -98.209141   -126.79263            0    451.51029    18.065956    21.279309    22.040424            0            0            0    8473.0238    2609.0218    -3613.162    2358.6711     2590.767   -2811.3794    930.93263    18.065956    21.279309    22.040424           90           90           90 
   92000     267.1419   -126.14885   -96.348773   -126.14885            0    1396.0159    18.070445    21.284597    22.045901            0            0            0    8479.3415    333.48212    4699.5581    -844.9924    1298.9613    2412.1187    1890.0175    18.070445    21.284597    22.045901           90           90           90 
   92500    262.74796   -125.05122   -95.741286   -125.05122            0   -1340.2688    18.119886    21.342831    22.106218            0            0            0      8549.13   -2678.7559    34.864105   -1376.9147    621.57124   -76.221162    299.05401    18.119886    21.342831    22.106218           90           90           90 
   93000    263.80359   -125.31571   -95.888022   -125.31571            0    472.29917    17.969857    21.166117    21.923183            0            0            0    8338.5288    116.95056   -800.79792    2100.7449   -411.07298    1612.8676    1150.3038    17.969857    21.166117    21.923183           90           90           90 
   93500    263.02374   -125.63604   -96.295351   -125.63604            0    -1445.672    18.081503    21.297621    22.059391            0            0            0    8494.9167   -1337.2429    888.83651   -3888.6096    909.02239   -2133.6802    760.23047    18.081503    21.297621    22.059391           90           90           90 
   94000    265.04551   -126.29722    -96.73099   -126.29722            0   -1876.7148    18.084502    21.301153    22.063049            0            0            0     8499.144   -3457.1949    869.96306   -3042.9126   -2622.5683    3632.8219   -2547.7598    18.084502    21.301153    22.063049           90           90           90 
   94500    263.01227   -126.58741   -97.247998   -126.58741            0    1061.7999     18.08188    21.298065     22.05985            0            0            0     8495.448    1809.3217    287.13016    1088.9477    553.78858    349.48977    99.140892     18.08188    21.298065     22.05985           90           90           90 
   95000    248.14142    -127.3519   -99.671353    -127.3519            0    269.49217    18.224529    21.466086    22.233882            0            0            0    8698.1014     4685.652   -188.38328   -3688.7922    2185.6303    1379.8474   -1509.7324    18.224529    21.466086    22.233882           90           90           90 
   95500    255.50195   -125.34125   -96.839623   -125.34125            0    1459.7981    18.146991    21.374757    22.139286            0            0            0     8587.553   -1785.9069    3313.9922    2851.3089   -1258.4414   -1502.4941   -353.11782    18.146991    21.374757    22.139286           90           90           90 
   96000    274.58788   -126.02947   -95.398775   -126.02947            0   -174.04317    18.107577    21.328333    22.091202            0            0            0    8531.7202   -1205.2775    1368.3058    -685.1578    3319.1709   -1337.0543    950.56924    18.107577    21.328333    22.091202           90           90           90 
   96500    263.59855   -125.16341    -95.75859   -125.16341            0   -1626.9521    18.131449    21.356451    22.120324            0            0            0     8565.507   -3689.6376   -1827.4572    636.23869    129.12656   -100.17666   -2029.2134    18.131449    21.356451    22.120324           90           90           90 
   97000    265.15373   -125.59691   -96.018613   -125.59691            0   -2134.9133    18.057298    21.269111    22.029861            0            0            0    8460.8469   -2827.6349   -3417.1198    -159.9852    453.09562   -1492.1914   -2027.2961    18.057298    21.269111    22.029861           90           90           90 
   97500    263.65488   -125.92393   -96.512828   -125.92393            0     1309.549    18.015326    21.219673    21.978655            0            0            0    8401.9853    200.55341    2066.8637      1661.23   -187.27716   -546.82416     536.2766    18.015326    21.219673    21.978655           90           90           90 
   98000    259.33141    -125.9819    -97.05309    -125.9819            0    345.21356    18.156911    21.386441    22.151388            0            0            0    8601.6431     3695.526   -3091.2599    431.37458   -679.68946    289.98179   -545.86603    18.156911    21.386441    22.151388           90           90           90 
   98500    269.30042   -126.13265   -96.091786   -126.13265            0    1787.5419    18.030535    21.237587     21.99721            0            0            0    8423.2826   -1491.0393    3172.8965    3680.7686   -2210.4954    1179.3662   -323.23842    18.030535    21.237587     21.99721           90           90           90 
   99000    269.18635   -126.72772   -96.699581   -126.72772            0    1200.3834    17.918934    21.106136    21.861057            0            0            0    8267.8399    854.60968     1676.891    1069.6496    905.74045    75.867924    -3142.045    17.918934    21.106136    21.861057           90           90           90 
   99500    281.71717   -126.01643   -94.590454   -126.01643            0   -3024.3781    18.124382    21.348127    22.111703            0            0            0    8555.4956   -6769.1443   -3491.6885    1187.6986    -162.6405   -2667.2415   -551.68176    18.124382    21.348127    22.111703           90           90           90 
  100000    266.04982   -125.33595   -95.657696   -125.33595            0   -126.92584    18.104477    21.324682    22.087419            0            0            0    8527.3388    -546.5067    1093.8934   -928.16419   -1047.4711    1381.2994    -3028.953    18.104477    21.324682    22.087419           90           90           90 
  100500     261.0232   -124.60024    -95.48271   -124.60024            0    1069.8846    17.916081    21.102776    21.857576            0            0            0    8263.8915    1606.2349    593.63832    1009.7805   -180.27549    274.35947    2921.0468    17.916081    21.102776    21.857576           90           90           90 
  101000    260.80764   -126.11018   -97.016694   -126.11018            0      942.474    17.984664    21.183558    21.941248            0            0            0    8359.1587   -712.34508   -165.83092     3705.598   -1617.2523    1629.8824   -632.63809    17.984664    21.183558    21.941248           90           90           90 
  101500    267.66502   -127.29246   -97.434028   -127.29246            0   -300.33527     18.05442    21.265721    22.026349            0            0            0    8456.8021    -42.17979    1336.2738   -2195.0998    2565.7209    831.44122    2721.6885     18.05442    21.265721    22.026349           90           90           90 
  102000    257.90381   -125.76721   -96.997647   -125.76721            0   -1166.1825    18.016866    21.221487    21.980534            0            0            0    8404.1403   -3484.0763   -450.14005    435.66897    818.43011   -614.30344   -298.00574    18.016866    21.221487    21.980534           90           90           90 
  102500    256.80233    -126.0571   -97.410414    -126.0571            0    -1456.398    17.992477     21.19276    21.950779            0            0            0     8370.057   -1770.7715   -604.42296   -1993.9996     1021.461    -1832.226   -770.58917    17.992477     21.19276    21.950779           90           90           90 
  103000    271.95348   -126.32592   -95.989101   -126.32592            0   -254.03378     18.04486     21.25446    22.014686            0            0            0    8443.3751   -1655.2322    353.50037    539.63053   -1319.2801    190.57097   -876.95042     18.04486     21.25446    22.014686           90           90           90 
  103500    264.69463   -127.40825   -97.881167   -127.40825            0    1326.1238    17.954141    21.147606     21.90401            0            0            0    8316.6698    900.63528    1934.6892    1143.0468     1147.813    1797.1622     1240.689    17.954141    21.147606     21.90401           90           90           90 
  104000    257.43725   -125.00189   -96.284377   -125.00189            0    -1390.167    17.962372    21.157301    21.914052            0            0            0    8328.1136   -963.39562   -2614.2607   -592.84449    77.192677   -1439.9419    382.06627    17.962372    21.157301    21.914052           90           90           90 
  104500    254.85505     -124.667   -96.237534     -124.667            0   -1797.2821    18.040977    21.249887    22.009949            0            0            0    8437.9263   -4550.6182    1407.9922   -2249.2202    251.96799    1960.6247    811.80737    18.040977    21.249887    22.009949           90           90           90 
  105000    264.71046   -124.17741    -94.64856   -124.17741            0    -2778.801    18.000726    21.202477    21.960843            0            0            0    8381.5748   -1959.4324   -3890.3508   -2486.6199    709.70313   -1491.4511   -221.12607    18.000726    21.202477    21.960843           90           90           90 
  105500    269.92652   -124.99963   -94.888922   -124.99963            0   -562.80033    17.868561    21.046804    21.799603            0            0            0    8198.3099   -310.54747     1242.826   -2620.6795   -222.42248    645.05428   -701.10024    17.868561    21.046804    21.799603           90           90           90 
  106000    262.34078   -125.34249    -96.07798   -125.34249            0    281.45226    17.907089    21.092184    21.846606            0            0            0    8251.4544    451.78275     357.4688    35.105217    1041.3876   -1672.7904    236.29841    17.907089    21.092184    21.846606           90           90           90 
  106500    261.85395   -125.89452   -96.684313   -125.89452            0    2290.9598    17.928027    21.116847     21.87215            0            0            0     8280.433    2156.9802    3773.8234    942.07578    685.46838   -2187.6178   -3755.8615    17.928027    21.116847     21.87215           90           90           90 
  107000    259.32598   -125.75341   -96.825209   -125.75341            0   -2480.4116    17.957195    21.151202    21.907735            0            0            0    8320.9137   -4361.2315   -2399.9916   -680.01176   -362.43301    2348.5293    95.286437    17.957195    21.151202    21.907735           90           90           90 
  107500    255.23116   -124.52894    -96.05752   -124.52894            0   -424.61071    17.932961    21.122658     21.87817            0            0            0    8287.2711   -1503.7036   -847.51262    1077.3841   -2242.3879   -1111.8824   -317.56687    17.932961    21.122658     21.87817           90           90           90 
  108000     252.4483   -123.25369   -95.092706   -123.25369            0   -1352.0218    18.007745    21.210744    21.969406            0            0            0    8391.3827   -2534.9272    2258.8697   -3780.0081   -202.53938    873.09063   -198.00348    18.007745    21.210744    21.969406           90           90           90 
  108500    269.48653   -123.94797   -93.886347   -123.94797            0   -854.13817    18.003741    21.206027    21.964521            0            0            0    8385.7866   -557.88746   -1536.5417   -467.98537    1113.2436   -65.337421     -1983.46    18.003741    21.206027    21.964521           90           90           90 
  109000    261.03423   -124.92648   -95.807715   -124.92648            0    260.88518    17.992947    21.193314    21.951353            0            0            0    8370.7135    745.37468   -729.68649    766.96733    856.43103   -3176.2782   -420.86044    17.992947    21.193314    21.951353           90           90           90 
  109500    268.55304   -124.70612   -94.748622   -124.70612            0   -850.61761    18.018846    21.223819    21.982949            0            0            0     8406.911   -1250.9977   -3828.7754    2527.9203    2055.5307   -2420.5165    211.95899    18.018846    21.223819    21.982949           90           90           90 
  110000    267.32949   -125.66972   -95.848716   -125.66972            0    1125.6932    18.045439    21.255143    22.015393            0            0            0    8444.1888    1721.4482    297.62215    1358.0091     1009.535   -695.33941   -463.98063    18.045439    21.255143    22.015393           90           90           90 
  110500    253.14116   -125.15921   -96.920935   -125.15921            0    104.31849    18.052974    21.264018    22.024586            0            0            0    8454.7711    2606.4787    406.72328   -2700.2465    554.78439    31.403121    1036.1778    18.052974    21.264018    22.024586           90           90           90 
  111000    257.55752   -124.30613   -95.575201   -124.30613            0    221.36938    18.047574    21.257657    22.017997            0            0            0    8447.1856    1746.7377   -2697.9496    1615.3201    1284.4703   -1405.2457   -1509.6978    18.047574    21.257657    22.017997           90           90           90 
  111500    270.06153   -125.89138   -95.765612   -125.89138            0    1449.4342     18.05291    21.263942    22.024508            0            0            0    8454.6808    1054.6868    2037.5853    1256.0306    1909.6617   -481.45755   -713.59638     18.05291    21.263942    22.024508           90           90           90 
[...]
 1973500    262.43375   -124.36633   -95.091452   -124.36633            0     -1118.86     18.17838     21.41173    22.177581            0            0            0    8632.1923    1218.6586   -3992.9884   -582.25024   -2735.7233   -1251.7008   -464.36619     18.17838     21.41173    22.177581           90           90           90 
 1974000    263.93726   -125.56683   -96.124235   -125.56683            0   -958.04759    18.201755    21.439262    22.206098            0            0            0    8665.5347    364.97373   -3148.7808   -90.335725    118.48288   -1588.2548    300.20342    18.201755    21.439262    22.206098           90           90           90 
 1974500    259.39227   -125.06077   -96.125168   -125.06077            0     1406.869    18.106662    21.327255    22.090084            0            0            0     8530.426    2028.6644   -728.07224     2920.015     -944.563   -1324.7654   -144.90761    18.106662    21.327255    22.090084           90           90           90 
 1975000    260.83741    -126.2899   -97.193096    -126.2899            0    1080.0535    18.044819    21.254413    22.014637            0            0            0    8443.3186    2958.5497    560.18921   -278.57852     1770.218   -759.34011   -204.73656    18.044819    21.254413    22.014637           90           90           90 
 1975500    252.88823   -125.21526   -97.005195   -125.21526            0    620.72641    18.003181    21.205368    21.963838            0            0            0    8385.0047   -903.84252   -64.753476    2830.7752    -2308.974   -2372.5349   -351.01121    18.003181    21.205368    21.963838           90           90           90 
 1976000    263.77079   -125.73031   -96.306277   -125.73031            0   -579.10859    18.025176    21.231276    21.990673            0            0            0    8415.7753   -1552.0813   -1097.7625    912.51803    2749.0545    1014.1508   -636.27471    18.025176    21.231276    21.990673           90           90           90 
 1976500    267.08292   -126.00312   -96.209616   -126.00312            0    1086.1005    18.122573    21.345997    22.109497            0            0            0    8552.9348   -740.66829    2130.6101    1868.3597   -277.83496    2047.4287   -670.10907    18.122573    21.345997    22.109497           90           90           90 
 1977000    267.45003    -126.0197   -96.185244    -126.0197            0    2755.2673    18.096948    21.315814    22.078234            0            0            0    8516.7049    3374.4584    3353.3878    1537.9556   -690.64334    562.55055    606.70595    18.096948    21.315814    22.078234           90           90           90 
 1977500    260.01403   -125.66717   -96.662211   -125.66717            0   -1677.0204    18.177064     21.41018    22.175976            0            0            0     8630.318    5.5753766   -3751.1845   -1285.4522     352.9257    1333.9195   -1606.1466    18.177064     21.41018    22.175976           90           90           90 
 1978000    276.27907   -126.66466   -95.845317   -126.66466            0   -446.21067    18.212999    21.452506    22.219816            0            0            0    8681.6038   -1868.2621    1226.1166   -696.48649    2323.0212    396.51268   -1438.9236    18.212999    21.452506    22.219816           90           90           90 
 1978500    260.20958   -125.03251   -96.005741   -125.03251            0     3049.256    18.140742    21.367396    22.131662            0            0            0     8578.684    2052.7492    4283.6677    2811.3509    810.46134    1299.5168    2804.0524    18.140742    21.367396    22.131662           90           90           90 
 1979000    262.11418   -126.40005   -97.160818   -126.40005            0    -2642.876    18.201835    21.439356    22.206196            0            0            0    8665.6488     -3793.19   -2051.2996   -2084.1383   -2710.6483    204.86457    124.97074    18.201835    21.439356    22.206196           90           90           90 
 1979500    271.18861   -125.37153   -95.120029   -125.37153            0    2316.8696    18.162191    21.392661     22.15783            0            0            0    8609.1505    6696.0616   -130.96931    385.51651    1416.3663   -2016.0157   -100.97591    18.162191    21.392661     22.15783           90           90           90 
 1980000    270.45722   -126.14647   -95.976557   -126.14647            0    -60.90476    18.185695    21.420346    22.186505            0            0            0     8642.617   -566.23682    2095.5416    -1712.019   -482.98344    467.70558    1424.0992    18.185695    21.420346    22.186505           90           90           90 
 1980500    274.64581   -126.77118   -96.134025   -126.77118            0    365.02495    18.168777    21.400418    22.165865            0            0            0    8618.5189    1176.6765   -458.38771    376.78604    252.61842   -477.38531   -885.27167    18.168777    21.400418    22.165865           90           90           90 
 1981000    272.92986   -126.18164   -95.735904   -126.18164            0    1968.3371    18.092925    21.311075    22.073326            0            0            0    8511.0257    3826.7001    1275.3595    802.95156    447.01153   -340.72826    -2784.041    18.092925    21.311075    22.073326           90           90           90 
 1981500     273.9287   -126.87006     -96.3129   -126.87006            0    560.42133    18.028282    21.234934    21.994461            0            0            0    8420.1256   -93.276367    506.36892    1268.1715    452.05871   -2186.4378   -267.96854    18.028282    21.234934    21.994461           90           90           90 
 1982000    279.42757   -126.12224   -94.951674   -126.12224            0   -468.53323    18.134061    21.359527    22.123511            0            0            0    8569.2095   -1355.1516    2341.3586   -2391.8067    341.09327   -1348.8217   -1090.3476    18.134061    21.359527    22.123511           90           90           90 
 1982500    275.15105   -127.75218   -97.058665   -127.75218            0     3324.524    18.097854    21.316881    22.079339            0            0            0    8517.9838    -726.1753    4828.6293     5871.118    2706.9268    895.53754    57.326937    18.097854    21.316881    22.079339           90           90           90 
 1983000    270.56941   -126.66264   -96.480218   -126.66264            0   -1859.3545    18.087413    21.304582    22.066601            0            0            0    8503.2495    394.09702   -4398.8692   -1573.2914   -172.84015    255.39542    132.83172    18.087413    21.304582    22.066601           90           90           90 
 1983500    265.84753   -126.18121   -96.525521   -126.18121            0   -898.91727    18.194461    21.430671      22.1972            0            0            0    8655.1215   -1550.9706    1175.9679   -2321.7491    1742.5082    1667.3959    1785.0118    18.194461    21.430671      22.1972           90           90           90 
 1984000     263.5467   -126.13853   -96.739496   -126.13853            0    1284.9459    18.152565    21.381323    22.146087            0            0            0     8595.469    1687.1557    293.73146    1873.9506   -913.95025    917.28309   -2042.0393    18.152565    21.381323    22.146087           90           90           90 
 1984500    272.39327   -125.20219   -94.816313   -125.20219            0    2131.2543    18.101025    21.320615    22.083207            0            0            0    8522.4614    2012.9153    2185.3421    2195.5055   -2002.7528     1512.639    2363.2687    18.101025    21.320615    22.083207           90           90           90 
 1985000    277.97611   -125.12272   -94.114069   -125.12272            0   -1012.7224     18.20248    21.440116    22.206982            0            0            0    8666.5697    2007.4004    -4228.159   -817.40845    392.70418   -1425.0754   -2052.6976     18.20248    21.440116    22.206982           90           90           90 
 1985500    275.42038   -126.37576   -95.652204   -126.37576            0    644.69018    18.106534    21.327105    22.089929            0            0            0    8530.2461    1441.0064     503.3503   -10.286201   -2443.1089   -502.48217    699.44818    18.106534    21.327105    22.089929           90           90           90 
 1986000     254.8218   -125.41633   -96.990571   -125.41633            0    2784.4979    18.094078    21.312432    22.074732            0            0            0    8512.6526    1803.0781    4440.0904    2110.3253    1246.2819    514.31736   -361.14065    18.094078    21.312432    22.074732           90           90           90 
 1986500    265.55458   -124.92466   -95.301645   -124.92466            0   -1986.0699     18.25782    21.505299    22.274497            0            0            0     8745.856   -2968.2393     726.7123   -3716.6827   -729.98494    1103.8441   -246.25028     18.25782    21.505299    22.274497           90           90           90 
 1987000    264.47851   -125.16658   -95.663599   -125.16658            0    2113.4438    18.108945    21.329944     22.09287            0            0            0    8533.6536    1422.2542    1835.8733    3082.2039     887.4781   -1441.8354   -1467.6201    18.108945    21.329944     22.09287           90           90           90 
 1987500     254.1905   -126.30218   -97.946852   -126.30218            0     93.01144     18.08779    21.305026    22.067061            0            0            0     8503.781    840.18847   -1279.9275    718.77334    997.61027    1160.9584    601.55513     18.08779    21.305026    22.067061           90           90           90 
 1988000    276.66415   -124.12775   -93.265446   -124.12775            0    95.543286    18.238465    21.482501    22.250884            0            0            0    8718.0706    143.49913    362.50138   -219.37065   -784.24568   -1383.1717   -471.57456    18.238465    21.482501    22.250884           90           90           90 
 1988500    267.35818   -124.34806   -94.523851   -124.34806            0    2488.0323    18.127535    21.351841     22.11555            0            0            0    8559.9614     4892.997   -2178.2745    4749.3745    298.56527    895.03752   -1537.1954    18.127535    21.351841     22.11555           90           90           90 
 1989000    269.11683   -127.20634   -97.185957   -127.20634            0   -2527.9926    18.078137    21.293657    22.055285            0            0            0    8490.1742   -3618.6244   -4274.6829    309.32939    885.29322     1892.351    1427.6965    18.078137    21.293657    22.055285           90           90           90 
 1989500    254.90071   -125.49394   -97.059384   -125.49394            0   -479.81114    18.084852    21.301566    22.063477            0            0            0    8499.6385   -359.95187   -3468.3147    2388.8331     553.8795   -152.64102   -516.91417    18.084852    21.301566    22.063477           90           90           90 
 1990000    263.47755   -125.64748   -96.256165   -125.64748            0   -1458.6855     18.02455    21.230538    21.989908            0            0            0    8414.8975     75.48843   -1283.5124   -3168.0327    673.55788    718.76818    1105.3915     18.02455    21.230538    21.989908           90           90           90 
 1990500    265.88942   -126.44327   -96.782902   -126.44327            0    2176.2311    18.029223    21.236043     21.99561            0            0            0     8421.445    1584.7217    4492.5869     451.3849     -1413.09    798.79857   -2312.3383    18.029223    21.236043     21.99561           90           90           90 
 1991000    251.23399   -127.47856   -99.453025   -127.47856            0      1427.23    18.111558    21.333021    22.096057            0            0            0    8537.3475    917.41423    1270.5982    2093.6777    908.55676    521.32049     -1742.23    18.111558    21.333021    22.096057           90           90           90 
 1991500    267.05328   -125.87455   -96.084351   -125.87455            0   -115.48552    18.016266     21.22078    21.979801            0            0            0    8403.3002    4411.1123   -2582.0286   -2175.5403    1077.4999   -1954.8119   -3184.2542    18.016266     21.22078    21.979801           90           90           90 
 1992000    252.90781   -126.05103   -97.838784   -126.05103            0   -2891.3986    18.125414    21.349342    22.112962            0            0            0     8556.957   -4772.0627   -1312.4713   -2589.6617    530.18725    1074.2259   -49.907754    18.125414    21.349342    22.112962           90           90           90 
 1992500       258.61   -126.28523   -97.436895   -126.28523            0   -3652.6977    18.169899    21.401741    22.167234            0            0            0    8620.1164   -379.50618   -5273.2654   -5305.3214   -31.807062     604.7974   -362.48443    18.169899    21.401741    22.167234           90           90           90 
 1993000    260.26851   -126.76476   -97.731412   -126.76476            0   -1154.6339    18.009489    21.212799    21.971535            0            0            0    8393.8221   -452.16633   -1761.9854   -1249.7498    3237.4512    35.549216   -399.58962    18.009489    21.212799    21.971535           90           90           90 
 1993500     262.1505   -125.80745   -96.564166   -125.80745            0    252.72359    18.024497    21.230476    21.989844            0            0            0    8414.8237   -102.45462   -211.43492    1072.0603   -1575.7958    639.88582    2680.8732    18.024497    21.230476    21.989844           90           90           90 
 1994000    253.82928   -124.57127   -96.256227   -124.57127            0   -2714.5147    18.079866    21.295693    22.057394            0            0            0    8492.6104   -2993.9338   -2775.6996   -2373.9107    1348.0375   -1043.3546   -223.58301    18.079866    21.295693    22.057394           90           90           90 
 1994500    272.29276   -128.02691   -97.652239   -128.02691            0    714.47364    18.057978    21.269912     22.03069            0            0            0    8461.8028   -82.631887     401.5883    1824.4645    489.30641    462.28283    726.77234    18.057978    21.269912     22.03069           90           90           90 
 1995000    263.60232   -127.18594     -97.7807   -127.18594            0    1593.0362    18.120243    21.343252    22.106654            0            0            0    8549.6359     1176.792    2115.1874    1487.1291    19.790117   -1127.3861    2422.9861    18.120243    21.343252    22.106654           90           90           90 
 1995500    258.68714   -127.76148   -98.904543   -127.76148            0   -2679.0241     18.14201    21.368891     22.13321            0            0            0    8580.4841   -2796.9686   -5297.2846    57.180985   -203.17325    1415.5426   -1335.1453     18.14201    21.368891     22.13321           90           90           90 
 1996000    257.45079   -126.06152     -97.3425   -126.06152            0   -209.81873    18.093825    21.312134    22.074423            0            0            0    8512.2953     1582.935    -1776.397   -435.99416   -1997.5075    370.46917   -155.62998    18.093825    21.312134    22.074423           90           90           90 
 1996500    263.41196   -126.21782    -96.83382   -126.21782            0   -1821.9278    18.257639    21.505086    22.274276            0            0            0    8745.5956   -314.46721   -2430.1818   -2721.1343   -710.19945    946.03712    915.98147    18.257639    21.505086    22.274276           90           90           90 
 1997000    257.34985   -125.29028   -96.582521   -125.29028            0   -1647.6407    18.257245    21.504622    22.273796            0            0            0      8745.03    1660.9619    -4100.454   -2503.4302    141.49165   -472.21911   -1134.6509    18.257245    21.504622    22.273796           90           90           90 
 1997500    266.68068   -126.69884   -96.950206   -126.69884            0   -920.01005    18.139031    21.365381    22.129574            0            0            0    8576.2568   -1570.7755    701.65687   -1890.9115   -925.82416    1300.2691    135.61987    18.139031    21.365381    22.129574           90           90           90 
 1998000    257.48582   -126.44641   -97.723479   -126.44641            0   -449.96516    18.212978    21.452482     22.21979            0            0            0    8681.5739    889.07548   -4018.9039     1779.933   -3461.6671     1618.228   -2669.4166    18.212978    21.452482     22.21979           90           90           90 
 1998500    264.67784   -127.20392   -97.678704   -127.20392            0   -1373.5942    18.190473    21.425974    22.192334            0            0            0    8649.4311   -3974.9184    1627.3761   -1773.2402   -1123.2052   -1168.6991   -200.39911    18.190473    21.425974    22.192334           90           90           90 
 1999000    261.38147   -126.97823   -97.820732   -126.97823            0    762.00735    18.139741    21.366218    22.130442            0            0            0    8577.2651    1569.2355    172.27919    544.50738    2127.0186    1053.2452    43.813409    18.139741    21.366218    22.130442           90           90           90 
 1999500    264.41433   -126.52788   -97.032062   -126.52788            0    1095.4291     18.23896    21.483085    22.251488            0            0            0    8718.7813     -328.798   -1157.5703    4772.6556    1865.0212    25.438653    462.32425     18.23896    21.483085    22.251488           90           90           90 
 2000000    271.99402   -126.79299   -96.451649   -126.79299            0    678.85741    18.193107    21.429076    22.195547            0            0            0    8653.1887   -436.84444    3683.1815   -1209.7649     212.3962    575.89961    33.848863    18.193107    21.429076    22.195547           90           90           90 
Loop time of 10762.8 on 1 procs for 2000000 steps with 864 atoms

Performance: 8.028 ns/day, 2.990 hours/ns, 185.826 timesteps/s
75.3% CPU use with 1 MPI tasks x 1 OpenMP threads

MPI task timing breakdown:
Section |  min time  |  avg time  |  max time  |%varavg| %total
---------------------------------------------------------------
Pair    | 9354.7     | 9354.7     | 9354.7     |   0.0 | 86.92
Bond    | 0.33685    | 0.33685    | 0.33685    |   0.0 |  0.00
Neigh   | 1281.4     | 1281.4     | 1281.4     |   0.0 | 11.91
Comm    | 44.574     | 44.574     | 44.574     |   0.0 |  0.41
Output  | 10.32      | 10.32      | 10.32      |   0.0 |  0.10
Modify  | 62.843     | 62.843     | 62.843     |   0.0 |  0.58
Other   |            | 8.567      |            |       |  0.08

Nlocal:        864.000 ave         864 max         864 min
Histogram: 1 0 0 0 0 0 0 0 0 0
Nghost:        3993.00 ave        3993 max        3993 min
Histogram: 1 0 0 0 0 0 0 0 0 0
Neighs:         0.00000 ave           0 max           0 min
Histogram: 1 0 0 0 0 0 0 0 0 0
FullNghs:      184744.0 ave      184744 max      184744 min
Histogram: 1 0 0 0 0 0 0 0 0 0

Total # of neighbors = 184744
Ave neighs/atom = 213.82407
Ave special neighs/atom = 0.0000000
Neighbor list builds = 200000
Dangerous builds not checked

unfix		3
unfix		2

write_data	data.final.${pid}
write_data	data.final.0
System init for write_data ...

write_restart   restart.lmp.${pid}
write_restart   restart.lmp.0
System init for write_restart ...
Unloading pair style deepmd
Unloading compute style deepmd
Unloading fix style deepmd
Total wall time: 2:59:31
