LAMMPS data file via write_data, version 29 Sep 2021, timestep = 400000

864 atoms
2 atom types

0.026091459457807886 18.18148154054191 xlo xhi
0.05227388966259916 23.576903110337213 ylo yhi
0.10199049309967911 22.11120550689953 zlo zhi

Masses

1 1.008
2 15.999

Atoms # full

706 0 1 -1.1794 2.604720945321423 1.7426189486943882 3.1391141146431063 0 0 0
708 0 2 0.5897 1.8259758796819079 2.154262727852595 2.7723131410614523 0 0 0
20 0 2 0.5897 0.9892469837479609 3.2145623129944383 0.296612917282092 0 0 0
3 0 2 0.5897 0.380914433627898 4.058624880616463 2.5696244166904196 0 0 0
1 0 1 -1.1794 0.5216430826579503 3.2185084552833882 2.153428161213507 0 0 0
188 0 2 0.5897 3.0412462823815622 0.24985365044654115 2.435145667283392 0 0 0
29 0 2 0.5897 4.17403382116691 2.6477875536340907 2.4612820769220414 0 0 0
707 0 2 0.5897 2.5833227749288636 1.7451139086289138 4.084382881437735 0 0 0
30 0 2 0.5897 5.004348192567253 3.968859014010028 2.4237652380002235 0 0 0
28 0 1 -1.1794 4.95241067746201 3.0612856774155293 2.0074909468363877 0 0 0
493 0 1 -1.1794 7.332416562862314 1.762051736311034 2.8615516286737273 0 0 0
494 0 2 0.5897 6.479885044895433 2.160220788395048 2.609045942924554 0 0 0
495 0 2 0.5897 7.939106987087708 2.3697399335521463 2.3928765669541647 0 0 0
668 0 2 0.5897 5.239708330312507 2.942108382466727 0.28710894503763584 0 0 0
846 0 2 0.5897 7.380068413292274 1.5580671062657676 4.417213398129902 0 0 0
748 0 1 -1.1794 9.690505767104014 3.126677841268024 2.012314847383706 0 0 0
750 0 2 0.5897 9.676287383355849 3.2756711097688282 1.0861596142034244 0 0 0
749 0 2 0.5897 9.905742084314472 4.0186117380815265 2.3471983865272152 0 0 0
106 0 1 -1.1794 11.9406807787275 1.9500480147970096 3.1144278480371246 0 0 0
108 0 2 0.5897 11.105508309004922 2.336405425599313 2.768622396885202 0 0 0
107 0 2 0.5897 11.938072407879071 1.900863876094491 4.07341769698139 0 0 0
215 0 2 0.5897 13.259275579921988 2.6948577678066354 2.6151244437970744 0 0 0
63 0 2 0.5897 12.346208273661377 0.1581906198329244 2.6975753975191052 0 0 0
2 0 2 0.5897 17.96299729353442 2.638336686528031 2.5044697253097437 0 0 0
216 0 2 0.5897 14.395356399926634 3.8481538284994006 2.3388519865534088 0 0 0
214 0 1 -1.1794 14.073078421766088 2.9208110620758436 2.192364125956785 0 0 0
406 0 1 -1.1794 16.4932318223512 1.6929021944261855 3.02261179861589 0 0 0
407 0 2 0.5897 16.425816565381602 0.7571077724377347 2.764175661582989 0 0 0
408 0 2 0.5897 15.660261599710761 2.0141709942685817 2.6345182195307286 0 0 0
369 0 2 0.5897 14.120259772796263 3.15773574125921 0.22684797890789019 0 0 0
123 0 2 0.5897 2.7956806791776887 8.652416925617695 2.8519237382833444 0 0 0
253 0 1 -1.1794 2.8261952712831517 7.118263452907296 2.0380167198744865 0 0 0
254 0 2 0.5897 2.7766230047856553 7.436437057569985 1.0999471733474213 0 0 0
255 0 2 0.5897 1.9465255600739806 6.822878038864516 2.341856039020453 0 0 0
595 0 1 -1.1794 0.5040823564987751 6.13229144083462 3.224344967536916 0 0 0
597 0 2 0.5897 0.38599295811828976 5.977958103067505 4.182717176572709 0 0 0
138 0 2 0.5897 4.53587350188631 6.184263118076356 2.6282451090608343 0 0 0
65 0 2 0.5897 7.356020389716856 8.20146613150226 2.5469294557408007 0 0 0
136 0 1 -1.1794 5.234118945122924 5.670193551587924 3.0788693927560336 0 0 0
415 0 1 -1.1794 7.422681262084424 6.486834525851864 2.051385373966736 0 0 0
416 0 2 0.5897 6.690036091820237 6.008573279102561 2.4319099932290102 0 0 0
417 0 2 0.5897 8.256793700881087 6.214183495017741 2.524996323366345 0 0 0
137 0 2 0.5897 5.104018409161597 5.7998070742281 4.056150226265625 0 0 0
162 0 2 0.5897 7.433116143958973 6.895346425113557 0.23239977037517992 0 0 0
64 0 1 -1.1794 7.389032868360462 9.10914200131303 2.913675663112164 0 0 0
66 0 2 0.5897 7.55731918677014 8.967848615457354 3.83959476362789 0 0 0
190 0 1 -1.1794 11.755889050431675 7.026847945889905 2.09962277434784 0 0 0
191 0 2 0.5897 11.57600664838724 7.0591424338083595 1.169898263392329 0 0 0
192 0 2 0.5897 11.892879232217336 7.8714022194371065 2.448718333911934 0 0 0
298 0 1 -1.1794 9.680896581788122 5.7996798077272 3.2948483732665266 0 0 0
299 0 2 0.5897 10.415865190201528 6.308849596103353 2.947732812758826 0 0 0
300 0 2 0.5897 9.709511904458205 5.969167296068919 4.240887244439547 0 0 0
110 0 2 0.5897 13.261436646228097 6.227016867727435 2.878294737509515 0 0 0
596 0 2 0.5897 17.836940750749953 6.526800932558427 2.9192089238536014 0 0 0
109 0 1 -1.1794 14.104224693722193 5.797459319465645 3.1904877282463455 0 0 0
111 0 2 0.5897 14.794643640886392 6.491607529980251 2.9922969175040315 0 0 0
838 0 1 -1.1794 16.262810274991445 7.402748630897451 2.232967149950797 0 0 0
839 0 2 0.5897 16.219725488664707 8.340669061869125 2.4256415670731877 0 0 0
840 0 2 0.5897 16.417203734962122 7.380279268133398 1.2625487173126317 0 0 0
121 0 1 -1.1794 2.9362494603479354 9.571251333548506 3.2273751364435843 0 0 0
122 0 2 0.5897 2.711926912311264 9.55508261383265 4.171941766834962 0 0 0
44 0 2 0.5897 1.8332162723638499 10.764397654569953 2.498184042307827 0 0 0
43 0 1 -1.1794 0.9496184733493067 11.104041265392711 2.3104024718783944 0 0 0
45 0 2 0.5897 0.8454012044884172 11.939708308092802 2.7138986711517608 0 0 0
373 0 1 -1.1794 0.6749254309141948 13.717385355673175 2.911103812209988 0 0 0
374 0 2 0.5897 0.6415923932348546 13.76218387226537 3.892145408790355 0 0 0
396 0 2 0.5897 0.5395511424129147 10.884482836524372 0.5276195429549001 0 0 0
173 0 2 0.5897 4.485333920883766 13.532199459649535 2.2332059701871856 0 0 0
219 0 2 0.5897 4.529963577165615 10.163958921574636 2.581870174282372 0 0 0
172 0 1 -1.1794 5.299600775540069 13.174762478901537 2.5232694859636835 0 0 0
174 0 2 0.5897 5.349707152187207 12.210482653534678 2.3522978935349137 0 0 0
217 0 1 -1.1794 5.327460120441447 10.529309166802907 2.1800582812702958 0 0 0
218 0 2 0.5897 6.083913589592802 10.005182496325869 2.5176368483425517 0 0 0
363 0 2 0.5897 5.366701715875357 10.863135651121775 0.3849431129257696 0 0 0
773 0 2 0.5897 8.75516360363335 10.11036616949084 2.4025064604860233 0 0 0
480 0 2 0.5897 6.582798256243316 14.063150006464367 2.227347096132123 0 0 0
479 0 2 0.5897 8.15377508044822 13.987451802824923 2.4109619224355736 0 0 0
200 0 2 0.5897 5.198122734917953 13.321388301226436 4.484827506688761 0 0 0
91 0 1 -1.1794 12.007206574977996 9.600652362270576 2.896630319651107 0 0 0
92 0 2 0.5897 11.989092977910522 9.759339688850824 3.853896596393131 0 0 0
93 0 2 0.5897 11.210544264907503 9.979939397795826 2.4290274455190617 0 0 0
774 0 2 0.5897 9.487055790178315 10.982860907188762 1.3663226523640863 0 0 0
772 0 1 -1.1794 9.582681522520241 10.612744698029053 2.2656693315830996 0 0 0
154 0 1 -1.1794 9.618636247444035 13.219678095289495 2.8611780084153464 0 0 0
156 0 2 0.5897 9.630165546082447 12.270679703334824 2.900321158431928 0 0 0
155 0 2 0.5897 10.459235591643132 13.544730869575874 2.5426059567204558 0 0 0
860 0 2 0.5897 13.576058768068767 10.431765209646088 2.666324957301225 0 0 0
842 0 2 0.5897 16.813508731240105 9.761193724945525 4.128658654613752 0 0 0
841 0 1 -1.1794 16.775148758209873 9.89658675869872 3.148040418496316 0 0 0
55 0 1 -1.1794 14.290904596349032 13.567288400576006 3.065539763889529 0 0 0
57 0 2 0.5897 14.265359145606846 12.624156815091979 2.7905925617075384 0 0 0
843 0 2 0.5897 17.559468445624205 10.314713534238201 2.8948662220827237 0 0 0
859 0 1 -1.1794 14.227622083852117 11.00360335558933 2.315429506798089 0 0 0
861 0 2 0.5897 15.128698220892023 10.76415787687113 2.627457388395912 0 0 0
152 0 2 0.5897 14.270663904033054 11.506652409230703 0.3503336894744143 0 0 0
56 0 2 0.5897 14.152254900182143 13.605041562306901 4.058297990725611 0 0 0
557 0 2 0.5897 2.5257916847621824 14.210426239653271 2.237424642146749 0 0 0
556 0 1 -1.1794 3.216425912546749 14.754200977800723 1.782961740153207 0 0 0
558 0 2 0.5897 2.9409221438075104 14.735875786009004 0.8606721647830894 0 0 0
292 0 1 -1.1794 2.783303653057557 17.37977283159232 2.7637377695589342 0 0 0
293 0 2 0.5897 2.9896691741926977 16.48876925698329 2.3747118453149736 0 0 0
344 0 2 0.5897 1.3447630698218713 18.515256218365074 2.431403259702383 0 0 0
294 0 2 0.5897 2.6688297252240516 17.22877161339013 3.709916161605765 0 0 0
227 0 2 0.5897 4.275680929572152 18.1820832082361 2.5385936340901414 0 0 0
345 0 2 0.5897 0.4614399359083494 18.69618912984854 1.235814453227717 0 0 0
448 0 1 -1.1794 7.3416895844432695 17.177140288613856 3.1583398208033078 0 0 0
449 0 2 0.5897 7.137149209437763 16.274687682820947 2.865213418983845 0 0 0
450 0 2 0.5897 6.5493304685381135 17.674988833151197 2.9082984555452467 0 0 0
478 0 1 -1.1794 7.405947171902183 14.5875544408499 2.1388455105235393 0 0 0
602 0 2 0.5897 5.034783868481246 18.379455316612322 0.29136866240851056 0 0 0
226 0 1 -1.1794 5.13869941139733 18.552050408122035 2.2825192714133147 0 0 0
317 0 2 0.5897 7.338057423086364 15.138156474310962 0.5827709534737426 0 0 0
321 0 2 0.5897 8.688690347567729 18.242229006802596 2.472270704962088 0 0 0
560 0 2 0.5897 12.90993357223737 14.177996910270908 2.3552066614720903 0 0 0
561 0 2 0.5897 12.01913216170238 14.806706851596369 1.1607351631823493 0 0 0
559 0 1 -1.1794 12.086068739974632 14.632698138221707 2.1077641699563734 0 0 0
320 0 2 0.5897 10.201504936359905 18.08909322433764 2.2796997572909334 0 0 0
832 0 1 -1.1794 12.0949823006661 17.314764163761623 2.7695305111982487 0 0 0
833 0 2 0.5897 12.961514241594246 17.70114004697008 2.558560666106184 0 0 0
834 0 2 0.5897 12.19660375791531 16.334427093221024 2.5267620016939856 0 0 0
319 0 1 -1.1794 9.446842367332552 18.69111142027849 2.0479462224217317 0 0 0
375 0 2 0.5897 18.05334293841277 14.204731902063985 2.5226863560328123 0 0 0
179 0 2 0.5897 15.672137597278152 14.501407333308945 2.252031792500313 0 0 0
178 0 1 -1.1794 16.489239389108896 15.035663819171669 2.1125686168154485 0 0 0
180 0 2 0.5897 16.411702607555114 15.937337484041436 2.481034334500698 0 0 0
745 0 1 -1.1794 16.424085489000994 17.627724558552508 3.1365487042743863 0 0 0
746 0 2 0.5897 17.218847249582247 18.12833523145435 2.8203818075789404 0 0 0
747 0 2 0.5897 15.6176457344215 18.046358610538064 2.7222216649240414 0 0 0
614 0 2 0.5897 16.489795440904487 15.267863473911097 0.3113947715266242 0 0 0
305 0 2 0.5897 14.329614808536054 18.81019347498446 0.9118368619225635 0 0 0
304 0 1 -1.1794 14.394862030066017 18.787180557650757 1.8857386340779252 0 0 0
343 0 1 -1.1794 0.5007900562414835 18.91499868219573 2.157180077563305 0 0 0
187 0 1 -1.1794 3.112911622526987 22.883249751548853 2.0344833992912013 0 0 0
189 0 2 0.5897 3.100135904247504 22.90016804055601 1.093389185201145 0 0 0
694 0 1 -1.1794 0.7965757118015213 21.535260242585558 3.0360204200489944 0 0 0
695 0 2 0.5897 0.7875581829253796 20.679196585096086 2.567720507244587 0 0 0
696 0 2 0.5897 1.6483898273926818 21.920256755191758 2.783050746413619 0 0 0
266 0 2 0.5897 4.430181994869967 21.970121175486113 2.4317740165973714 0 0 0
819 0 2 0.5897 7.531458561953949 23.319601064616933 2.460775003089014 0 -1 0
228 0 2 0.5897 5.043795646321469 19.528474300506716 2.4697714191177114 0 0 0
265 0 1 -1.1794 5.133528903455316 21.375071098806906 2.8422698221889986 0 0 0
267 0 2 0.5897 6.000729371431337 21.72489913375349 2.588274537069473 0 0 0
817 0 1 -1.1794 7.662577969514904 22.428952313761663 2.070873259525087 0 0 0
818 0 2 0.5897 8.543458476095038 22.181045635895778 2.3281032526036802 0 0 0
498 0 2 0.5897 7.154882963059906 22.600601931791807 0.15596243603744878 0 0 0
61 0 1 -1.1794 12.173789992212276 22.86792800401878 2.225403725510831 0 0 0
62 0 2 0.5897 12.785894294529026 22.256793510200076 2.6459153337852874 0 0 0
397 0 1 -1.1794 9.876837731275957 21.180453883112918 2.9237936993680447 0 0 0
398 0 2 0.5897 9.711075935489683 20.290851087363947 2.5817913226032716 0 0 0
399 0 2 0.5897 10.527761030828628 21.576436988705566 2.3351992454532096 0 0 0
425 0 2 0.5897 12.065963281981077 23.031042056728893 0.2923753832253633 0 0 0
389 0 2 0.5897 9.522460658030509 19.104634388378834 0.20878336085330057 0 0 0
306 0 2 0.5897 14.19710148039895 19.6298977146227 2.245415783862281 0 0 0
118 0 1 -1.1794 13.997534057425915 21.335201536622975 3.236946349528499 0 0 0
120 0 2 0.5897 14.830347153652061 21.60168929362319 2.8255798118859454 0 0 0
727 0 1 -1.1794 16.412609833296266 22.602355386806195 2.036762564468936 0 0 0
728 0 2 0.5897 16.708799726171478 22.73817164103864 1.1229837351184508 0 0 0
729 0 2 0.5897 17.20991858266744 22.286540944969346 2.4488626562020728 0 0 0
119 0 2 0.5897 14.137525148466565 21.246165390490027 4.171873318199835 0 0 0
487 0 1 -1.1794 2.726268695591781 1.5584221727429686 5.942871983685436 0 0 0
488 0 2 0.5897 1.9889224737293396 2.0880884132535873 6.231059756142774 0 0 0
489 0 2 0.5897 2.6708308772462246 0.6949089726707879 6.402888759295088 0 0 0
785 0 2 0.5897 0.6320327385488952 3.081437892372342 7.4998905958482025 0 0 0
784 0 1 -1.1794 0.5655834032022455 2.9608933026499265 6.538884210389315 0 0 0
83 0 2 0.5897 4.405935314893628 2.3473675101064257 6.301374502799767 0 0 0
183 0 2 0.5897 0.4803868441424008 4.620649098966646 6.157170475069031 0 0 0
82 0 1 -1.1794 5.24205566508082 2.830955310230355 6.499196180921917 0 0 0
84 0 2 0.5897 6.017717116033301 2.2883054626690527 6.197245926116309 0 0 0
844 0 1 -1.1794 7.393431442852429 1.526193020907914 5.3935744514227215 0 0 0
845 0 2 0.5897 7.548031547114235 0.6045599972372556 5.687103175830674 0 0 0
419 0 2 0.5897 8.98487011672002 2.5419723184750693 6.177212782941675 0 0 0
275 0 2 0.5897 5.382429096274215 2.5115267702021344 8.431345081470665 0 0 0
686 0 2 0.5897 5.088979616511896 4.58608315836908 6.175480539883694 0 0 0
420 0 2 0.5897 9.350337803423864 4.08308199315206 6.054298419408412 0 0 0
418 0 1 -1.1794 9.595128129144369 3.235148972591149 6.48771288385393 0 0 0
177 0 2 0.5897 9.902014524083206 3.1933569811880913 8.506450969131372 0 0 0
802 0 1 -1.1794 12.038429512308033 1.8570773831752292 6.139494766346457 0 0 0
803 0 2 0.5897 11.238490186000986 2.4063042609805834 6.0329151891098665 0 0 0
804 0 2 0.5897 12.788273603334842 2.3964551097430307 6.465543008410208 0 0 0
171 0 2 0.5897 11.762092488222985 0.16942815643939613 6.910509775184634 0 0 0
660 0 2 0.5897 16.471884536000637 1.3958959292478696 4.995374955648934 0 0 0
786 0 2 0.5897 17.85010644204845 2.5522450285843816 6.459701045011861 0 0 0
436 0 1 -1.1794 14.73416832031195 2.9402662520802134 7.062751942330919 0 0 0
437 0 2 0.5897 14.75158363324605 2.7721457246043033 8.04137336763602 0 0 0
438 0 2 0.5897 15.370285960398006 2.301747515819869 6.7174868262762235 0 0 0
658 0 1 -1.1794 16.53699546257819 1.2279885182128298 5.927420867335454 0 0 0
659 0 2 0.5897 16.453682191452152 0.2588714031279756 6.031204454278107 0 0 0
732 0 2 0.5897 14.72807674272944 4.520112595661356 6.138215662840068 0 0 0
10 0 1 -1.1794 2.8375575017328574 6.706002726969496 6.64624708609115 0 0 0
11 0 2 0.5897 1.9799360858519872 6.260214246295586 6.307899684237925 0 0 0
12 0 2 0.5897 2.8344668171867196 7.570082267887446 6.1483929543347084 0 0 0
181 0 1 -1.1794 0.5927488952202051 5.528959827107985 5.837054031833577 0 0 0
650 0 2 0.5897 2.9621202984749204 6.593652755616658 8.392343835928592 0 0 0
687 0 2 0.5897 4.263017946326524 5.958062022073057 6.153483121960832 0 0 0
793 0 1 -1.1794 2.553546655095367 9.397503601153916 5.940150893737776 0 0 0
145 0 1 -1.1794 7.244614715693491 6.668279605242844 6.8458784112520945 0 0 0
146 0 2 0.5897 6.360151825800114 6.270741739069752 6.517183967812894 0 0 0
147 0 2 0.5897 7.231632418147221 6.719955152089433 7.798973045546573 0 0 0
685 0 1 -1.1794 5.1345181473397945 5.548803272694881 5.9396193976727565 0 0 0
714 0 2 0.5897 7.517861480724219 8.236270218337001 6.025356748748654 0 0 0
165 0 2 0.5897 8.907707812380258 6.340253095806889 6.4743953151319245 0 0 0
712 0 1 -1.1794 7.62937557545483 9.085078554706696 5.4964722145713285 0 0 0
163 0 1 -1.1794 9.66205806789092 6.033805654006891 5.979545602329351 0 0 0
164 0 2 0.5897 10.443091982470351 6.226962720885378 6.539774079465062 0 0 0
230 0 2 0.5897 12.420647739184767 8.650242298468516 6.152427894855205 0 0 0
391 0 1 -1.1794 12.204622110493705 6.8926582123829325 6.985577793980462 0 0 0
392 0 2 0.5897 12.302130266388678 6.90973615730866 7.941011253031462 0 0 0
393 0 2 0.5897 12.786282403717422 6.175874603370325 6.609510811695994 0 0 0
731 0 2 0.5897 14.232539883813931 5.331165896059244 4.8948527068337455 0 0 0
182 0 2 0.5897 17.985543030088024 6.005801648711805 6.216074153310626 0 0 0
730 0 1 -1.1794 14.418974232492657 5.4020743832103975 5.84927294632777 0 0 0
525 0 2 0.5897 16.67438351844433 8.628599950557552 6.11067282250562 0 0 0
541 0 1 -1.1794 16.660871470264055 6.957165757283872 6.619441799775978 0 0 0
542 0 2 0.5897 15.872557739259621 6.5299117087368215 6.216660674088332 0 0 0
543 0 2 0.5897 16.66022919551854 6.805767868846823 7.62548847302061 0 0 0
550 0 1 -1.1794 0.3068154837255251 10.843372950325444 7.07102030105812 0 0 0
794 0 2 0.5897 1.7739009371998367 9.83311914541077 6.3500989602250275 0 0 0
795 0 2 0.5897 3.355482102261224 10.006800557083738 6.077397155409479 0 0 0
552 0 2 0.5897 0.28145573049494205 11.731308808375626 6.701273975542154 0 0 0
655 0 1 -1.1794 0.593797142186547 13.543823162462392 5.68268077366669 0 0 0
551 0 2 0.5897 0.3263777721588501 10.900612877920906 8.046960643369198 0 0 0
656 0 2 0.5897 1.3992163702145397 14.00436463521861 6.087587889576776 0 0 0
713 0 2 0.5897 8.37363487179991 9.509709590950703 5.921468432695268 0 0 0
577 0 1 -1.1794 5.2501478045426735 10.47816407644895 5.993492608635086 0 0 0
578 0 2 0.5897 6.130090750158521 10.075593667245304 5.8211371870665545 0 0 0
579 0 2 0.5897 5.233658826119026 11.414056158551293 5.764893826881675 0 0 0
199 0 1 -1.1794 5.218137625151552 13.277808464972447 5.445610412897482 0 0 0
582 0 2 0.5897 5.6081336241928055 10.68049352419207 8.174069314156242 0 0 0
201 0 2 0.5897 5.961396041311368 13.849389195439551 5.734098185668617 0 0 0
806 0 2 0.5897 9.818313674190835 13.484172389708476 4.8609847984740515 0 0 0
229 0 1 -1.1794 12.274976759731311 9.56855403516269 5.784630841935007 0 0 0
805 0 1 -1.1794 9.804558412183336 13.216121403564687 5.8174395658938725 0 0 0
231 0 2 0.5897 12.953350249934939 10.093318843652435 6.189129144152842 0 0 0
739 0 1 -1.1794 9.742973499273377 10.662473657802538 6.265024273153786 0 0 0
740 0 2 0.5897 10.524730641502162 10.23161003414103 6.016135721986326 0 0 0
741 0 2 0.5897 9.666145787667851 10.59299835640296 7.206688788200489 0 0 0
807 0 2 0.5897 9.723711300787215 12.238644932159561 5.860743441819054 0 0 0
726 0 2 0.5897 13.321037705263025 13.904182360877593 6.200401386816369 0 0 0
642 0 2 0.5897 10.976837182123804 14.059954140643702 6.6930440070616894 0 0 0
657 0 2 0.5897 17.91593387206597 13.933024377129106 6.037097591322152 0 0 0
523 0 1 -1.1794 16.594696282017274 9.540668592540785 5.756576732759527 0 0 0
724 0 1 -1.1794 14.038175084333682 13.506683192237034 5.700228343045978 0 0 0
634 0 1 -1.1794 14.57719369699054 11.062109241450583 6.69994505473996 0 0 0
636 0 2 0.5897 14.402610263906766 11.914588061433879 6.267478610304456 0 0 0
524 0 2 0.5897 17.322841630811034 10.03409339202456 6.276923722316918 0 0 0
857 0 2 0.5897 14.401750760770042 10.783346297537166 8.361665492988442 0 0 0
635 0 2 0.5897 15.283230313178759 10.590813815265646 6.147735931801112 0 0 0
725 0 2 0.5897 14.816614028220796 13.898572046028226 6.1685610109700635 0 0 0
18 0 2 0.5897 3.7917956607859002 14.211992788712326 6.60795219192565 0 0 0
16 0 1 -1.1794 2.924709403196495 14.72833267456492 6.829315137846064 0 0 0
17 0 2 0.5897 2.9765697856780102 14.648556045934956 7.856363349024666 0 0 0
238 0 1 -1.1794 3.2933034470510423 17.40675259033459 5.549836608183679 0 0 0
239 0 2 0.5897 3.180333610291065 16.497490532318977 5.94818976674824 0 0 0
341 0 2 0.5897 1.7580956143224982 18.36667724718501 6.202065945213332 0 0 0
240 0 2 0.5897 4.166029544385377 17.75833158101441 5.670333259780399 0 0 0
342 0 2 0.5897 1.0763284426493291 18.76009930419623 7.589493672113828 0 0 0
340 0 1 -1.1794 0.9087774965791736 18.575316617475877 6.6078314257032345 0 0 0
308 0 2 0.5897 7.758697577374248 17.63645323378789 4.938140818886578 0 0 0
519 0 2 0.5897 8.369718892515616 14.398208619161279 6.053410727944166 0 0 0
517 0 1 -1.1794 7.496098540971929 14.854031727068241 6.16467823593292 0 0 0
307 0 1 -1.1794 7.741787344129477 17.63865636729013 5.90276447439886 0 0 0
518 0 2 0.5897 7.579166650074337 15.796707904924142 5.986187128025122 0 0 0
309 0 2 0.5897 8.628300180399517 17.962919728005822 6.168021823796526 0 0 0
386 0 2 0.5897 6.302960549112996 18.34506676662363 6.20347865276231 0 0 0
102 0 2 0.5897 5.6264172286058916 18.669962990854017 8.206292757038712 0 0 0
385 0 1 -1.1794 5.457560405032322 18.79917200361342 6.412899104919142 0 0 0
378 0 2 0.5897 7.1659922682337545 14.691791656730103 7.918855781288289 0 0 0
376 0 1 -1.1794 7.373296163454582 14.481071106141503 8.869602742909148 0 0 0
645 0 2 0.5897 12.153140373023565 17.22799673786676 4.7642505969254865 0 0 0
640 0 1 -1.1794 11.827415330391148 14.525739931010996 6.912205192043058 0 0 0
641 0 2 0.5897 11.81685884624973 14.833398858941338 7.8545504700426 0 0 0
643 0 1 -1.1794 12.200085655309111 17.116832865127947 5.743718591468708 0 0 0
644 0 2 0.5897 11.910654676286896 16.18028738836884 5.932463860876394 0 0 0
303 0 2 0.5897 11.066053515161418 18.36481031228076 6.506922177482547 0 0 0
734 0 2 0.5897 9.819571127747007 18.70042522226951 8.409061681684062 0 0 0
301 0 1 -1.1794 10.240467549104777 18.834597367674213 6.640479252492834 0 0 0
348 0 2 0.5897 13.624585539347258 17.951233033406382 6.434372974029104 0 0 0
564 0 2 0.5897 16.84690613294235 17.507873040862314 4.857451809167004 0 0 0
205 0 1 -1.1794 16.344878854557223 14.549225041453267 6.6155266566359785 0 0 0
206 0 2 0.5897 16.357632943046625 15.394597179872559 6.193945507361107 0 0 0
207 0 2 0.5897 16.580284080930063 14.832735452282751 7.488823880467875 0 0 0
562 0 1 -1.1794 16.856906114982486 17.183244010268027 5.7593012615971295 0 0 0
563 0 2 0.5897 17.644010906748164 17.612636146404313 6.244773335708862 0 0 0
347 0 2 0.5897 15.234952674908532 18.0597194084297 6.507912841837038 0 0 0
371 0 2 0.5897 14.43126108447846 18.859615564635618 8.595968286424911 0 0 0
346 0 1 -1.1794 14.380125952904182 18.491024179011966 6.706168970011063 0 0 0
413 0 2 0.5897 0.4387526072268115 21.49733340672401 4.677867003267194 0 0 0
700 0 1 -1.1794 2.480373441947827 22.415314647445214 6.967380084856954 0 0 0
701 0 2 0.5897 2.524228926042882 22.526131209005108 7.929800978576578 0 0 0
702 0 2 0.5897 1.5491358028245865 22.344394624859888 6.705489748767994 0 0 0
414 0 2 0.5897 0.5698810320280838 20.43828678322287 5.866049735092401 0 0 0
412 0 1 -1.1794 0.41561653140977173 21.387468201994402 5.650696010575998 0 0 0
248 0 2 0.5897 4.130458120945815 21.96657562526969 5.97980515567174 0 0 0
249 0 2 0.5897 4.88791739097208 21.44134192085353 4.7631314956459905 0 0 0
31 0 1 -1.1794 7.657381954878885 22.3697100876934 6.497627487267959 0 0 0
32 0 2 0.5897 8.497920891792237 22.09959744935771 6.091510421697982 0 0 0
33 0 2 0.5897 6.913515079420686 21.954957940731546 6.162108025239747 0 0 0
247 0 1 -1.1794 4.984465815112075 21.664432019290572 5.6790711259373445 0 0 0
387 0 2 0.5897 5.45172941131864 19.613324647537667 5.883375141081295 0 0 0
86 0 2 0.5897 7.684392513709457 22.461401449728996 8.287051907687358 0 0 0
591 0 2 0.5897 10.168753932081007 21.196348750329577 4.699623931879686 0 0 0
169 0 1 -1.1794 11.779396701463444 22.764331398587927 7.1949157290982 0 0 0
170 0 2 0.5897 12.553603056520418 22.42920684008847 6.7135421134417985 0 0 0
302 0 2 0.5897 10.284145010266833 19.69324272887743 6.295790440201505 0 0 0
589 0 1 -1.1794 10.14876176606031 21.2820697253891 5.63789442143977 0 0 0
590 0 2 0.5897 10.875760720183273 21.86033568334973 5.939158161437698 0 0 0
352 0 1 -1.1794 16.181275633994794 22.20224553400704 6.944728408687015 0 0 0
353 0 2 0.5897 16.87663812824087 21.687600057065865 6.554530500060609 0 0 0
354 0 2 0.5897 16.291975546899913 22.201541936567672 7.890336392201035 0 0 0
532 0 1 -1.1794 13.78610764352673 21.258980120018613 6.03596329387081 0 0 0
533 0 2 0.5897 14.530697940196603 21.723774931014958 6.383905111250442 0 0 0
534 0 2 0.5897 13.983916574387491 20.29192540695597 6.2414839385624 0 0 0
34 0 1 -1.1794 0.7856134394193264 3.2426754412387604 9.478323700013426 0 0 0
36 0 2 0.5897 1.6373918112440595 2.7922013872113887 9.788397819526548 0 0 0
167 0 2 0.5897 3.2317501525831047 2.0867291706405244 11.980401074991411 0 0 0
673 0 1 -1.1794 3.1004204118459393 1.7543171967610236 10.254992446744309 0 0 0
674 0 2 0.5897 3.9798820474800554 1.9028997884124415 9.945939489812812 0 0 0
675 0 2 0.5897 2.945783868892527 0.8398819505664821 10.041117265295785 0 0 0
35 0 2 0.5897 0.8140118671318732 4.12633331284796 9.867992532581876 0 0 0
166 0 1 -1.1794 3.2670578505025256 1.9368852492229607 12.937990018579574 0 0 0
274 0 1 -1.1794 5.6197350000413815 2.6446253138080045 9.347981803963785 0 0 0
276 0 2 0.5897 6.309747587763318 2.0639013571788927 9.513396554137877 0 0 0
355 0 1 -1.1794 7.942474360746109 1.488849455183736 10.313641877777382 0 0 0
356 0 2 0.5897 7.9588312145871845 0.5810556645628095 10.005867707305983 0 0 0
357 0 2 0.5897 7.891553718369109 1.4487441187764887 11.332886285948897 0 0 0
592 0 1 -1.1794 8.013974352254081 1.672058063033364 13.12603405791779 0 0 0
678 0 2 0.5897 5.5637695448218505 4.350237198213081 9.87219414182745 0 0 0
176 0 2 0.5897 9.154673695813399 2.3565612383137586 9.618078843044003 0 0 0
175 0 1 -1.1794 9.86458681038299 3.0237774323522517 9.488079905108131 0 0 0
514 0 1 -1.1794 12.162525888012354 1.9767686215492817 10.587760415842181 0 0 0
515 0 2 0.5897 12.08904269152303 1.6311464106387294 11.480644061355383 0 0 0
516 0 2 0.5897 11.401184821964362 2.4990792709897534 10.29660002142939 0 0 0
329 0 2 0.5897 11.767836635558623 0.43470853930659786 10.16965240772625 0 1 0
757 0 1 -1.1794 12.048623805775048 1.3399869176024466 13.180146390004788 0 0 0
849 0 2 0.5897 13.854747758399071 2.465918197845194 10.184266042920873 0 0 0
847 0 1 -1.1794 14.731292343150315 2.7497447685225764 9.839516514021343 0 0 0
652 0 1 -1.1794 17.15199090020029 1.4604370186983555 10.570220231731069 0 0 0
653 0 2 0.5897 17.23218116530684 1.5403567434508005 11.512377872997394 0 0 0
654 0 2 0.5897 17.719087070728158 2.2061711463917253 10.224834470243174 0 0 0
848 0 2 0.5897 15.448856670017774 2.2697807929316314 10.259370353356093 0 0 0
545 0 2 0.5897 14.47451942089083 4.651118475130792 9.97823861525516 0 0 0
649 0 1 -1.1794 3.0020150957073506 6.719362929223589 9.381451539175861 0 0 0
112 0 1 -1.1794 0.8624048307273452 5.77453686020545 10.676716287195312 0 0 0
113 0 2 0.5897 0.837050136816769 5.705357361875 11.65343707137459 0 0 0
114 0 2 0.5897 1.6914142468740487 6.222026538997049 10.310645406188286 0 0 0
257 0 2 0.5897 2.892443871541339 8.572282377829563 9.667595095880971 0 0 0
651 0 2 0.5897 3.844358219078938 6.317702302639466 9.657353514587635 0 0 0
796 0 1 -1.1794 3.0091588952912662 9.375983471854092 12.714790104894783 0 0 0
761 0 2 0.5897 5.281925396153664 5.504848661081478 12.190688418038622 0 0 0
526 0 1 -1.1794 7.472251406902646 6.9149335288318445 9.671229617720481 0 0 0
527 0 2 0.5897 7.588769269782573 7.849561522258095 10.035406860612936 0 0 0
676 0 1 -1.1794 5.368645513198453 5.231753202782543 10.300792422034549 0 0 0
677 0 2 0.5897 6.178145528887321 5.762832794694995 10.030804318567759 0 0 0
528 0 2 0.5897 8.219572500150301 6.3381532167167896 9.916293165929503 0 0 0
760 0 1 -1.1794 5.161386171712946 5.543512066735752 13.147522845258703 0 0 0
705 0 2 0.5897 9.740426962682834 4.775275087219856 10.22074402332224 0 0 0
313 0 1 -1.1794 11.847168613676027 7.063549935471691 9.624601895305707 0 0 0
704 0 2 0.5897 9.705440461392492 5.708508599685521 11.393742863784672 0 0 0
703 0 1 -1.1794 9.80686935110778 5.707976394159806 10.446688590452606 0 0 0
314 0 2 0.5897 11.06205044826384 6.670819187464376 10.011689046037079 0 0 0
315 0 2 0.5897 12.634780305038957 6.591806122667996 9.973479143182486 0 0 0
444 0 2 0.5897 11.835783427296798 8.834274702474367 10.228875792754657 0 0 0
850 0 1 -1.1794 9.874208620552176 6.1311517148511445 13.194846957209062 0 0 0
816 0 2 0.5897 14.119725093976461 5.95453543137307 12.163534912373308 0 0 0
544 0 1 -1.1794 14.25211550218907 5.545729209473918 10.300619868042439 0 0 0
546 0 2 0.5897 15.054362047210759 6.008244605727 10.155441368944354 0 0 0
622 0 1 -1.1794 16.865311899610084 6.719196056710199 9.497176233710665 0 0 0
623 0 2 0.5897 17.66565761736033 6.367537122885316 9.94143636393154 0 0 0
624 0 2 0.5897 16.677505525628703 7.634972105462263 9.800669054769184 0 0 0
814 0 1 -1.1794 14.063109032806132 5.693792866183122 13.135687118096076 0 0 0
195 0 2 0.5897 16.46916381017666 9.318941187238677 12.12659566992725 0 0 0
337 0 1 -1.1794 16.118452868874428 9.296024491250577 10.3115022503319 0 0 0
256 0 1 -1.1794 2.8482150122195398 9.523229543484804 9.888052412676805 0 0 0
797 0 2 0.5897 3.060669425388728 9.567103012352336 11.793379014920248 0 0 0
258 0 2 0.5897 3.657436906201302 9.876721255620955 9.58693394348494 0 0 0
14 0 2 0.5897 0.44243148092342915 11.833900026276693 10.200246187114235 0 0 0
15 0 2 0.5897 1.2192238657236745 10.50274916919917 10.084850659991277 0 0 0
13 0 1 -1.1794 0.3774637709957104 10.891165099817005 9.908380356243613 0 0 0
767 0 2 0.5897 0.5611210856766474 13.490590270516439 11.489086010036104 0 0 0
766 0 1 -1.1794 0.5991379407272373 13.361093347573938 10.53230118328195 0 0 0
813 0 2 0.5897 2.271535816393218 14.062716864431275 9.956148668526371 0 0 0
812 0 2 0.5897 3.8412307786177564 13.907836320011972 9.97658843904631 0 0 0
798 0 2 0.5897 2.3598457876755137 10.062720399531269 13.0226192244715 0 0 0
820 0 1 -1.1794 7.750343888833122 9.512779776506559 10.45657418843641 0 0 0
580 0 1 -1.1794 5.633782057725789 10.876849554652683 9.10971141676181 0 0 0
821 0 2 0.5897 7.959672560209485 9.566921297527815 11.408462843101882 0 0 0
454 0 1 -1.1794 5.512749626959104 13.168954537774725 10.353873143072601 0 0 0
455 0 2 0.5897 5.519227816709655 13.0770089402361 11.303427100380913 0 0 0