LAMMPS (29 Sep 2021 - Update 2)
  using 1 OpenMP thread(s) per MPI task
plugin load libdeepmd_lmp.so
Loading plugin: deepmd pair style v2.0 by Han Wang
Loading plugin: compute deeptensor/atom v2.0 by Han Wang
Loading plugin: fix dplr v2.0 by Han Wang
echo both

include		in.partitions
variable        pid world 0
include		in.temp
variable        temperature equal 255
variable        tempDamp equal 0.100
include		in.pressure
variable        pressure equal 986.923
variable        pressureDamp equal 1.0 # This is 1 ps
include		in.seed
variable        seed world 745823

units           metal
atom_style	full
include		in.box
read_data       water.data
Reading data file ...
  orthogonal box = (0.0000000 0.0000000 0.0000000) to (18.207573 23.629177 22.213196)
  1 by 1 by 1 MPI processor grid
  reading atoms ...
  864 atoms
  reading velocities ...
  864 velocities
Finding 1-2 1-3 1-4 neighbors ...
  special bond factors lj:    0        0        0       
  special bond factors coul:  0        0        0       
     0 = max # of 1-2 neighbors
     0 = max # of 1-3 neighbors
     0 = max # of 1-4 neighbors
     1 = max # of special neighbors
  special bonds CPU = 0.000 seconds
  read_data CPU = 1.692 seconds
include 	in.setup
variable	out_freq equal 500
variable	out_freq2 equal 500

timestep        0.0005

neigh_modify    delay 7 every 1

include         in.deepmd
# This is deepMD model

# create groups ###
#group ox type 2
#group hy type 1

mass 2 15.999
mass 1 1.008

pair_style      deepmd ../graph.pb
pair_coeff      * *

bond_style      none
angle_style     none
dihedral_style  none
improper_style  none
neigh_modify exclude none


neighbor        2.0 bin
neigh_modify    every 10 delay 0 check no

thermo          ${out_freq}
thermo          500
thermo_style 	custom step temp pe etotal epair emol press lx ly lz xy xz yz vol pxx pyy pzz pxy pxz pyz cella cellb cellc cellalpha cellbeta cellgamma


restart 	${out_freq} restart.lmp.${pid} restart2.lmp.${pid}
restart 	500 restart.lmp.${pid} restart2.lmp.${pid}
restart 	500 restart.lmp.0 restart2.lmp.${pid}
restart 	500 restart.lmp.0 restart2.lmp.0


include         in.dump
dump            myDump all atom ${out_freq2} dump.water.${pid}
dump            myDump all atom 500 dump.water.${pid}
dump            myDump all atom 500 dump.water.0
dump            myDump2 all dcd ${out_freq2} dump.dcd
dump            myDump2 all dcd 500 dump.dcd
dump_modify     myDump append yes
dump_modify     myDump2 append yes


timer           timeout 23:50:00 every 1000
New timer settings: style=normal  mode=nosync  timeout=23:50:00

fix             2 all nph aniso ${pressure} ${pressure} ${pressureDamp}
fix             2 all nph aniso 986.923 ${pressure} ${pressureDamp}
fix             2 all nph aniso 986.923 986.923 ${pressureDamp}
fix             2 all nph aniso 986.923 986.923 1
fix             3 all temp/csvr ${temperature} ${temperature} ${tempDamp} ${seed}
fix             3 all temp/csvr 255 ${temperature} ${tempDamp} ${seed}
fix             3 all temp/csvr 255 255 ${tempDamp} ${seed}
fix             3 all temp/csvr 255 255 0.1 ${seed}
fix             3 all temp/csvr 255 255 0.1 745823
velocity 	all create ${temperature} ${seed} dist gaussian
velocity 	all create 255 ${seed} dist gaussian
velocity 	all create 255 745823 dist gaussian

run             400000

CITE-CITE-CITE-CITE-CITE-CITE-CITE-CITE-CITE-CITE-CITE-CITE-CITE

Your simulation uses code contributions which should be cited:

- USER-DEEPMD package:

@article{Wang_ComputPhysCommun_2018_v228_p178,
  author = {Wang, Han and Zhang, Linfeng and Han, Jiequn and E, Weinan},
  doi = {10.1016/j.cpc.2018.03.016},
  url = {https://doi.org/10.1016/j.cpc.2018.03.016},
  year = 2018,
  month = {jul},
  publisher = {Elsevier {BV}},
  volume = 228,
  journal = {Comput. Phys. Commun.},
  title = {{DeePMD-kit: A deep learning package for many-body potential energy representation and molecular dynamics}},
  pages = {178--184}
}

CITE-CITE-CITE-CITE-CITE-CITE-CITE-CITE-CITE-CITE-CITE-CITE-CITE

Neighbor list info ...
  update every 10 steps, delay 0 steps, check no
  max neighbors/atom: 2000, page size: 100000
  master list distance cutoff = 8
  ghost atom cutoff = 8
  binsize = 4, bins = 5 6 6
  1 neighbor lists, perpetual/occasional/extra = 1 0 0
  (1) pair deepmd, perpetual
      attributes: full, newton on
      pair build: full/bin
      stencil: full/bin/3d
      bin: standard
Per MPI rank memory allocation (min/avg/max) = 7.189 | 7.189 | 7.189 Mbytes
Step Temp PotEng TotEng E_pair E_mol Press Lx Ly Lz Xy Xz Yz Volume Pxx Pyy Pzz Pxy Pxz Pyz Cella Cellb Cellc CellAlpha CellBeta CellGamma 
       0          255   -169.12462   -140.67899   -169.12462            0    -24437.21    18.207573    23.629177    22.213196            0            0            0    9556.7825   -24784.532   -23897.221   -24629.876  -0.50236936    311.66599   -221.75336    18.207573    23.629177    22.213196           90           90           90 
     500    241.15412    -150.3208   -123.41969    -150.3208            0    381.10673    17.901605    23.188403    21.807797            0            0            0    9052.6268   -2943.9555    2000.3864    2086.8893   -977.59311   -113.60796   -407.30251    17.901605    23.188403    21.807797           90           90           90 
    1000    237.88489   -145.05271   -118.51629   -145.05271            0    -676.0105    17.757294    23.036145    21.779991            0            0            0    8909.3144   -535.76764   -2574.5602    1082.2963    710.73314    952.48885   -102.57081    17.757294    23.036145    21.779991           90           90           90 
    1500    252.24718   -147.98655     -119.848   -147.98655            0     694.1115    17.981226    23.334582    22.144771            0            0            0    9291.6001    3714.8624    327.03377   -1959.5616   -548.84357    994.68017   -209.23447    17.981226    23.334582    22.144771           90           90           90 
    2000    261.53114   -146.33844   -117.16425   -146.33844            0    1446.0904    18.007644    23.314814    22.061154            0            0            0    9262.2621    4064.1672    1119.5013   -845.39722   -859.05841    475.40565     145.4358    18.007644    23.314814    22.061154           90           90           90 
    2500    260.57523   -146.01367   -116.94611   -146.01367            0    1576.5155    18.016266     23.31834    21.919511            0            0            0    9208.5934    1420.5946    2875.1025    433.84937    2420.3505   -486.03334   -38.895103    18.016266     23.31834    21.919511           90           90           90 
    3000    264.28195   -145.46113   -115.98008   -145.46113            0    1517.3641     17.83505    23.261485    21.945799            0            0            0    9104.6478    839.61225   -2302.8415    6015.3215    299.02276   -115.26173   -1691.8657     17.83505    23.261485    21.945799           90           90           90 
    3500    258.46326   -146.72159   -117.88963   -146.72159            0    5227.7923    17.879532     23.38054    22.164399            0            0            0    9265.4528    3303.2621    6192.6348      6187.48    1350.5659    1019.5735    747.21272    17.879532     23.38054    22.164399           90           90           90 
    4000    254.27461    -147.1515   -118.78679    -147.1515            0    -1401.122    18.070048    23.468493    22.259426            0            0            0    9439.7063   -3018.1352    863.48068   -2048.7116   -655.68639   -1276.1339   -375.30382    18.070048    23.468493    22.259426           90           90           90 
    4500    246.97041   -145.83151   -118.28159   -145.83151            0     1810.312    17.900133    23.118378     21.81324            0            0            0    9026.7996    -141.2436    988.99033    4583.1893   -1043.5598    805.27633   -132.57295    17.900133    23.118378     21.81324           90           90           90 
    5000    249.82167   -145.51244   -117.64446   -145.51244            0    884.31114    17.996872    23.246957    22.019808            0            0            0    9212.4827    3138.5326   -1208.8579    723.25871    2655.3498    221.51971    381.88241    17.996872    23.246957    22.019808           90           90           90 
    5500    244.17611   -146.18974   -118.95153   -146.18974            0    -1426.063    18.059953    23.323192    22.191918            0            0            0    9347.5855   -4495.9401    28.013064    189.73819    1204.9826    1625.3605    976.87276    18.059953    23.323192    22.191918           90           90           90 
    6000    249.75781   -146.14296    -118.2821   -146.14296            0    698.88008    17.991371     23.24255     22.02352            0            0            0     9209.473   -71.308923    820.71224    1347.2369   -2990.3952   -1150.8516    1117.3256    17.991371     23.24255     22.02352           90           90           90 
    6500    242.62669   -145.96051   -118.89513   -145.96051            0    856.53441    17.966444    23.319546    21.986518            0            0            0    9211.6763    1219.5548    3241.3631   -1891.3147   -1349.9319    228.74076     724.4065    17.966444    23.319546    21.986518           90           90           90 
    7000     253.1269   -144.65955   -116.42286   -144.65955            0    1375.8153    17.885189    23.438547    22.028474            0            0            0     9234.399    3048.6035    903.68596    175.15647    2104.8845    1227.1485     509.6205    17.885189    23.438547    22.028474           90           90           90 
    7500    251.58303   -144.90158   -116.83712   -144.90158            0   -732.69983    18.005611    23.571606     22.17165            0            0            0     9410.118   -2020.9076    1547.3386   -1724.5305   -1100.6162    890.15077   -414.56881    18.005611    23.571606     22.17165           90           90           90 
    8000    253.26817    -146.2063   -117.95386    -146.2063            0    2575.4518     17.96239    23.204128    22.007811            0            0            0    9172.8908    1912.0189    5049.4158    764.92082   -593.66065    73.372056    965.52361     17.96239    23.204128    22.007811           90           90           90 
    8500    245.57407   -145.57794   -118.18379   -145.57794            0    1154.1722    18.001785    23.109791    22.004164            0            0            0    9154.1173   -275.09087    1228.4983    2509.1091   -2380.3915    729.69465      133.804    18.001785    23.109791    22.004164           90           90           90 
    9000    261.63842   -145.31952   -116.13336   -145.31952            0    510.15998    18.102415    23.285754    22.121359            0            0            0    9324.7806    15.261403    3070.7104   -1555.4919   -670.78179   -1454.0737    978.91329    18.102415    23.285754    22.121359           90           90           90 
    9500    266.92434   -146.51399   -116.73818   -146.51399            0    1373.0267    18.022697    23.365017    22.036886            0            0            0    9279.7465    2166.3812    1908.7497    43.949312    10.037701   -1542.8085    314.62409    18.022697    23.365017    22.036886           90           90           90 
   10000    262.86296   -145.55613   -116.23337   -145.55613            0   -1532.9968    17.855761    23.463662    21.995467            0            0            0    9215.2548   -2658.5275   -2798.4666    858.00362   -1089.7535    1813.1332   -659.52897    17.855761    23.463662    21.995467           90           90           90 
   10500    279.39168   -145.13575   -113.96918   -145.13575            0   -680.07588    17.787594    23.573854    22.237376            0            0            0    9324.6243   -926.69495    262.43862   -1375.9713    572.23237   -391.68493   -85.025771    17.787594    23.573854    22.237376           90           90           90 
   11000     260.7941   -145.31328   -116.22131   -145.31328            0   -1345.2661    17.915266    23.338094    22.219092            0            0            0    9289.9834    -466.8567   -4339.6657     770.7241   -1623.5257   -1105.7411   -1060.3953    17.915266    23.338094    22.219092           90           90           90 
   11500    268.40196   -147.48925   -117.54861   -147.48925            0    3871.0601    18.243443    23.011268    21.975008            0            0            0    9225.2124    3861.2159    7520.6361     231.3283   -1875.2814   -223.55026   -19.959356    18.243443    23.011268    21.975008           90           90           90 
   12000    257.87023   -145.27552   -116.50971   -145.27552            0   -106.58124    18.357036    23.070247    21.992097            0            0            0    9313.6832   -1922.2446   -1599.2411     3201.742    619.53792   -687.40027   -991.00679    18.357036    23.070247    21.992097           90           90           90 
   12500    261.52687   -145.07887   -115.90515   -145.07887            0    2384.8723     17.99689    23.273514    22.088421            0            0            0    9251.7544    3437.6251    1385.7239     2331.268   -2038.4311    274.71696    555.15935     17.99689    23.273514    22.088421           90           90           90 
   13000    269.46982   -145.58341   -115.52365   -145.58341            0    2299.4333    17.759892    23.486458    22.202577            0            0            0    9261.0719    3086.5065     1356.845    2454.9483    552.72093   -97.036269   -1651.8352    17.759892    23.486458    22.202577           90           90           90 
   13500    259.19158   -147.17335   -118.26014   -147.17335            0   -276.38704    17.902219    23.499288    22.173294            0            0            0    9328.0695    1401.4164   -80.687402   -2149.8901    -234.7011     -719.754   -2383.0613    17.902219    23.499288    22.173294           90           90           90 
   14000    253.64343   -146.39553   -118.10123   -146.39553            0    231.50256    18.044911     23.28468    22.014751            0            0            0    9249.9373   -856.29731   -2147.5218    3698.3267    262.47867    901.16276   -41.819472    18.044911     23.28468    22.014751           90           90           90 
   14500    248.07077   -146.39874   -118.72608   -146.39874            0    2074.1281    18.081495    23.261108     22.00309            0            0            0    9254.4031    2547.5229    2030.6551    1644.2064   -345.47533    1961.7951   -277.13147    18.081495    23.261108     22.00309           90           90           90 
   15000    257.00161   -146.11787   -117.44895   -146.11787            0    1420.9316     18.03769    23.299678    22.109993            0            0            0    9292.2189    4348.8433     2566.403   -2652.4514     294.2632   -1461.4169   -587.48808     18.03769    23.299678    22.109993           90           90           90 
   15500    247.23215   -144.70259   -117.12348   -144.70259            0    703.31591    17.905505     23.29418    22.115566            0            0            0    9224.2709   -167.86759    658.30445    1619.5109   -1235.0466    1220.0919   -1861.1914    17.905505     23.29418    22.115566           90           90           90 
   16000    246.58336   -145.20982   -117.70308   -145.20982            0   -2439.7106    17.933471    23.434309    22.117881            0            0            0    9295.2271   -4919.6539   -2492.0685    92.590583   -1276.8562   -1054.6353   -267.26411    17.933471    23.434309    22.117881           90           90           90 
   16500    263.68532   -146.46033   -117.04584   -146.46033            0    911.41982    17.969464     23.42039    22.000574            0            0            0    9258.9823    1736.4812    1008.2041   -10.425853    1426.8639    1029.4566    677.21267    17.969464     23.42039    22.000574           90           90           90 
   17000    259.74484   -146.35074   -117.37581   -146.35074            0    1024.8293    18.037521    23.218211    21.941894            0            0            0    9189.2425   -554.85884     2694.281     935.0659   -1470.9019   -2326.2259   -1210.1244    18.037521    23.218211    21.941894           90           90           90 
   17500    251.80041   -145.36874   -117.28002   -145.36874            0   -737.14802    18.225857    23.263683    22.272243            0            0            0    9443.4431    116.87052    348.45244    -2676.767    770.52176   -379.47871    623.54228    18.225857    23.263683    22.272243           90           90           90 
   18000    254.31254   -147.13957   -118.77062   -147.13957            0    953.86471    17.952852     23.16044    22.045908            0            0            0    9166.5993    1957.0412   -3507.3539    4411.9068   -971.15397   -238.39735    600.14238    17.952852     23.16044    22.045908           90           90           90 
   18500    256.28085   -146.38343   -117.79491   -146.38343            0    3603.4739    17.872534    23.489924    21.986596            0            0            0    9230.5105    3195.7253    3232.7481    4381.9483    1215.7072    980.95337   -1748.1226    17.872534    23.489924    21.986596           90           90           90 
   19000    257.85249   -146.86126   -118.09743   -146.86126            0    1393.6068    17.903147     23.59542    22.078295            0            0            0    9326.5846     619.2534   -998.84795     4560.415    2421.1325    1891.6806   -52.180671    17.903147     23.59542    22.078295           90           90           90 
   19500    260.35882   -146.38139   -117.33797   -146.38139            0    3527.9402    17.995508     23.31072    22.103893            0            0            0    9272.3232    2617.1195    5340.3355    2626.3656   -809.37401   -285.34058   -2744.0677    17.995508     23.31072    22.103893           90           90           90 
   20000    254.17847   -146.94452   -118.59053   -146.94452            0    1741.5491    18.108304    23.066616    22.050303            0            0            0     9210.352    618.75568    5048.2039   -442.31218   -3352.8131    483.95553    182.16381    18.108304    23.066616    22.050303           90           90           90 
   20500    246.41271    -146.1648   -118.67709    -146.1648            0   -960.48371    18.124635    23.139927    22.011614            0            0            0    9231.7309      -2016.2    883.91053   -1749.1617   -263.44288    79.727935    245.90381    18.124635    23.139927    22.011614           90           90           90 
   21000    246.62163   -146.50774   -118.99673   -146.50774            0    381.71727    18.059974    23.501819    22.146224            0            0            0     9399.793    1098.1048    3111.5246   -3064.4776    -450.6639   -3260.8736    1469.9204    18.059974    23.501819    22.146224           90           90           90 
   21500    248.93813   -147.78586   -120.01644   -147.78586            0    1096.1024    17.798864    23.507446    21.992248            0            0            0    9201.6848     2225.839   -176.26996    1238.7381   -113.48515   -2310.8531   -256.15055    17.798864    23.507446    21.992248           90           90           90 
   22000    253.08048   -146.07015   -117.83864   -146.07015            0    1010.4044    17.854363    23.487547    22.093079            0            0            0    9264.8473    3042.0133     1232.872   -1243.6722    2727.3011   -709.05885    38.740015    17.854363    23.487547    22.093079           90           90           90 
   22500    247.98721   -145.98848   -118.32513   -145.98848            0   -1094.5188    18.061794    23.359271      22.1667            0            0            0    9352.3601   -1852.6202   -1341.1765   -89.759869    1825.5741    1341.3743    1727.2722    18.061794    23.359271      22.1667           90           90           90 
   23000    246.26267   -146.50163   -119.03066   -146.50163            0    1953.6939    18.119519    23.092591    22.009686            0            0            0     9209.439    957.21686    6358.2515   -1454.3866   -1246.7246    941.54169   -1526.4236    18.119519    23.092591    22.009686           90           90           90 
   23500    249.80279   -145.06475   -117.19887   -145.06475            0    204.11896    18.178623    23.204174     22.06211            0            0            0    9306.2382    177.74509    417.69455    16.917245    -110.8101    1087.4176   -582.76016    18.178623    23.204174     22.06211           90           90           90 
   24000    252.40475   -143.63026   -115.47413   -143.63026            0    2616.0605    17.870892    23.330568    22.073064            0            0            0    9203.1005    6499.5319    2773.3058   -1424.6561   -3153.1305   -850.68431    1900.2198    17.870892    23.330568    22.073064           90           90           90 
   24500    257.72147   -146.21568   -117.46646   -146.21568            0    1475.2819     17.79607    23.685694    22.259313            0            0            0    9382.5733    48.615202    910.91342    3466.3172   -32.463851     1018.996   -396.20719     17.79607    23.685694    22.259313           90           90           90 
   25000    259.90306   -144.71906   -115.72648   -144.71906            0    1478.1128    17.899482    23.511283    22.063958            0            0            0    9285.3914    2305.3032   -766.75778     2895.793    547.17368   -514.88291    2420.6402    17.899482    23.511283    22.063958           90           90           90 
   25500    269.29318   -145.50494   -115.46488   -145.50494            0    301.44838    18.173705    23.194344     21.94307            0            0            0       9249.6    791.44322   -1174.1156    1287.0175    -982.2331    608.07363    -456.3493    18.173705    23.194344     21.94307           90           90           90 
   26000    265.83041   -145.41016   -115.75638   -145.41016            0   -1865.0133    18.185224    23.129627     22.07368            0            0            0    9284.5749    -1388.517   -1884.6991   -2321.8238     914.4738    864.59665    340.51297    18.185224    23.129627     22.07368           90           90           90 
   26500    247.68136   -145.41663    -117.7874   -145.41663            0   -3030.8908    18.107301    23.341362    22.293664            0            0            0    9422.3963   -3906.2012   -4408.4098   -778.06131    1021.0906   -968.39871    -927.2682    18.107301    23.341362    22.293664           90           90           90 
   27000    269.47554   -146.05877   -115.99836   -146.05877            0    2253.5547    17.916401    23.375643    22.113512            0            0            0    9261.3026    2074.0544    2690.9747     1995.635    765.14565    -576.4402   -1096.2009    17.916401    23.375643    22.113512           90           90           90 
   27500    257.98483   -145.63493   -116.85634   -145.63493            0    2785.9262    17.932516    23.362457    22.003462            0            0            0    9218.2981    4788.7638    2187.3429    1381.6718    1800.1041   -52.341794    1164.5985    17.932516    23.362457    22.003462           90           90           90 
   28000    247.84298   -145.52736    -117.8801   -145.52736            0   -1570.1147    18.105739     23.47581    22.100928            0            0            0    9393.9307   -777.44218   -2964.5325   -968.36961    -401.0952   -507.36454    643.12878    18.105739     23.47581    22.100928           90           90           90 
   28500    257.27488   -145.42932   -116.72992   -145.42932            0    957.74955    18.053319    23.281276    22.055071            0            0            0    9269.8412    3378.5191     726.8152   -1232.0857   -555.09716    269.63727   -80.529252    18.053319    23.281276    22.055071           90           90           90 
   29000    251.61599   -145.46917   -117.40103   -145.46917            0    2043.2109    18.065408    23.283769    22.188465            0            0            0    9333.1519    824.33707    5709.7587   -404.46295    1862.8918    1736.5801    -537.1397    18.065408    23.283769    22.188465           90           90           90 
   29500    262.06265   -144.84415   -115.61066   -144.84415            0    849.36447    17.997612    23.380481     22.14071            0            0            0    9316.6519   -478.50601    2154.1297     872.4697   -1057.3251    119.77411    1756.3975    17.997612    23.380481     22.14071           90           90           90 
   30000    274.42271   -144.79048   -114.17821   -144.79048            0    93.451173    17.987019    23.559354    21.992973            0            0            0    9319.7983    2411.6402   -2905.8508    774.56415   -483.10597    479.64014   -849.09059    17.987019    23.559354    21.992973           90           90           90 
   30500    262.72393   -144.96897   -115.66172   -144.96897            0    1187.7728    18.044243    23.552983    22.060224            0            0            0    9375.5017    830.96629     2898.855   -166.50288    1529.0215   -340.75119    -1385.945    18.044243    23.552983    22.060224           90           90           90 
   31000    264.15474   -145.41444   -115.94759   -145.41444            0   -311.90989    17.991511    23.169147    22.186475            0            0            0    9248.3874    1109.3524   -552.70639   -1492.3757    388.74514   -1365.1546    216.39007    17.991511    23.169147    22.186475           90           90           90 
   31500    268.67951   -146.37461   -116.40301   -146.37461            0    413.67504     18.09362    23.051503    22.245379            0            0            0    9278.2166    1133.7665    2572.4673   -2465.2087   -1253.5363    829.71121   -323.29545     18.09362    23.051503    22.245379           90           90           90 
   32000    256.12289   -145.75925   -117.18836   -145.75925            0    2758.8892    18.128544    23.298055    22.072377            0            0            0    9322.4854    1242.3102    209.21865    6825.1386   -418.12825   -1612.3573   -1213.0558    18.128544    23.298055    22.072377           90           90           90 
   32500     254.2479   -145.39859   -117.03685   -145.39859            0   -1276.7186    18.015406    23.597552    21.933687            0            0            0    9324.4377   -1176.4442   -3043.6331    389.92145   -952.69852   -715.60189   -489.57268    18.015406    23.597552    21.933687           90           90           90 
   33000    252.02017   -145.11406   -117.00083   -145.11406            0    2651.4497     17.85307    23.581187     22.00671            0            0            0    9264.7501     4749.201    975.52751    2229.6205   -115.96074   -771.29464   -278.12377     17.85307    23.581187     22.00671           90           90           90 
   33500    255.96146   -145.51966   -116.96677   -145.51966            0    156.89571    17.883889    23.321291    22.274567            0            0            0    9290.1736   -687.95367    978.89788    179.74291    1838.7264    679.38636    -871.7441    17.883889    23.321291    22.274567           90           90           90 
   34000     254.2752   -147.82379   -119.45901   -147.82379            0   -122.30772    18.057446    23.192537    22.224382            0            0            0    9307.5262   -319.83512    2054.6551   -2101.7431   -343.05056   -335.99312    52.989342    18.057446    23.192537    22.224382           90           90           90 
   34500    248.51632   -147.52447    -119.8021   -147.52447            0    111.78737     18.23149    23.266843    21.956377            0            0            0    9313.6581   -2871.1021    1482.4076    1724.0567    323.63421    911.85588    911.39924     18.23149    23.266843    21.956377           90           90           90 
   35000    245.12243   -147.10119   -119.75741   -147.10119            0    770.35392    18.073397    23.325282    21.868863            0            0            0    9219.1926    2600.1443   -1009.0131    719.93054   -790.57036      -39.022    506.14028    18.073397    23.325282    21.868863           90           90           90 
   35500    249.98116   -146.78034   -118.89456   -146.78034            0     4100.494    17.899423    23.473052    22.117963            0            0            0     9292.953    5661.8251    1422.5815    5217.0754   -1656.7202    87.062994   -866.44794    17.899423    23.473052    22.117963           90           90           90 
   36000    247.45245   -145.99451   -118.39082   -145.99451            0   -1464.6212    17.839485    23.508776    22.312078            0            0            0    9357.3387   -1697.1071     122.7051   -2819.4616   -2542.3111    1990.7675   -176.53846    17.839485    23.508776    22.312078           90           90           90 
   36500    258.53641   -146.60158   -117.76146   -146.60158            0    159.00267    17.956817    23.341985    22.111242            0            0            0    9267.8776    588.34025    459.57011   -570.90233     699.8922   -640.89918   -550.81509    17.956817    23.341985    22.111242           90           90           90 
   37000    257.74901   -146.14016   -117.38787   -146.14016            0    453.48581    18.186664    23.227009    21.915636            0            0            0    9257.6428    2680.0645    408.26602   -1727.8731   -2316.0533    301.31825    275.63182    18.186664    23.227009    21.915636           90           90           90 
   37500    258.62206   -146.55816   -117.70848   -146.55816            0   -645.39783    18.234224    23.309663    21.984825            0            0            0    9344.2899   -2930.0369    1602.4037   -608.56028    116.20844    303.60031   -313.56073    18.234224    23.309663    21.984825           90           90           90 
   38000    263.73878   -145.91647   -116.49601   -145.91647            0    2423.7863    17.945481     23.37061    22.198627            0            0            0    9310.0339    2610.4623   -15.424281    4676.3208    1163.5323    887.55089    2018.8481    17.945481     23.37061    22.198627           90           90           90 
   38500    250.12015   -144.71291   -116.81163   -144.71291            0    588.36463    17.757801    23.417311    22.238883            0            0            0    9247.8162    3218.3185   -1181.3279   -271.89671   -1321.7398   -421.39477    730.96922    17.757801    23.417311    22.238883           90           90           90 
   39000     255.0536   -146.24281    -117.7912   -146.24281            0    32.791898    17.939199    23.489095    22.111786            0            0            0    9317.3662    48.039061    2260.4415   -2210.1049   -2708.2246    268.85017    785.74677    17.939199    23.489095    22.111786           90           90           90 
   39500    259.66807   -146.00854   -117.04218   -146.00854            0   -520.76875    18.175166    23.426097    21.977194            0            0            0    9357.3006   -1770.9867    1015.1916   -806.51115   -1973.0341     291.1917    742.50177    18.175166    23.426097    21.977194           90           90           90 
   40000     250.2007   -145.73209   -117.82183   -145.73209            0    57.681472    18.153383    23.166898    22.011592            0            0            0    9257.1417   -1586.2887    546.33374    1212.9994    1751.7249   -616.40375   -828.31928    18.153383    23.166898    22.011592           90           90           90 
   40500    254.08938    -146.6918   -118.34774    -146.6918            0   -2022.1092    18.081377    23.239677    22.286593            0            0            0    9364.9458    371.97086   -5299.8162   -1138.4823   -910.73289    24.691376   -1017.0934    18.081377    23.239677    22.286593           90           90           90 
   41000    256.34829   -146.02039   -117.42435   -146.02039            0   -50.064698    17.861233    23.313426    22.166162            0            0            0    9230.1346   -3841.5337    1639.8025    2051.5371   -453.46493    333.26014   -503.48144    17.861233    23.313426    22.166162           90           90           90 
   41500    261.68906   -146.27413   -117.08232   -146.27413            0    1349.6228    17.876821    23.634126    22.016944            0            0            0    9302.2257     1931.084   -524.75587    2642.5403   -762.89206   -1756.6612   -1116.7778    17.876821    23.634126    22.016944           90           90           90 
   42000    249.03198   -144.99992   -117.22003   -144.99992            0    3983.5157    18.048216    23.628244    22.022408            0            0            0    9391.4042    7294.0952    4232.3086    424.14328    -266.3567    661.44689    -1010.124    18.048216    23.628244    22.022408           90           90           90 
   42500    250.57212   -144.66476   -116.71307   -144.66476            0    2048.2567    18.089756    23.155873    22.067926            0            0            0    9243.9032    1745.4983    858.88579    3540.3859    1331.1086   -1675.9281   -889.59432    18.089756    23.155873    22.067926           90           90           90 
   43000    252.30396   -144.51915   -116.37427   -144.51915            0   -283.65759    18.116384    23.018237    22.233415            0            0            0    9271.4948   -1401.2837   -413.01267    963.32358   -1417.7274    -347.1375    475.57456    18.116384    23.018237    22.233415           90           90           90 
   43500    252.91472   -146.13665   -117.92363   -146.13665            0    2323.1075    18.070601    23.341907    22.175328            0            0            0    9353.6041    1556.9646    3172.1423    2240.2156   -416.72005     1414.522   -390.53083    18.070601    23.341907    22.175328           90           90           90 
   44000    257.25331   -146.26797   -117.57097   -146.26797            0    156.61102    17.954573    23.621443     21.96369            0            0            0    9315.0848   -280.65101   -1781.2057    2531.6898    -418.4945   -368.11979     827.4925    17.954573    23.621443     21.96369           90           90           90 
   44500    264.63821   -146.83222   -117.31143   -146.83222            0    2372.0247    17.900037    23.607167    22.031131            0            0            0    9309.6768    1660.5813    1927.1562    3528.3365    1265.6664    1092.6473    -1429.678    17.900037    23.607167    22.031131           90           90           90 
   45000    240.68594   -145.88509   -119.03622   -145.88509            0   -3128.5715    17.943614    23.369797    22.196056            0            0            0    9307.6632    402.20624   -3343.9052   -6444.0156    198.30889    595.61113    1567.9987    17.943614    23.369797    22.196056           90           90           90 
   45500    247.20968   -146.74235   -119.16574   -146.74235            0    1205.7084    17.984682     23.12838    22.177335            0            0            0    9224.8079    736.02122    3011.2212   -130.11712     861.6056    32.030817    -1066.554    17.984682     23.12838    22.177335           90           90           90 
   46000    254.66905   -146.55533   -118.14662   -146.55533            0    2153.9492    18.209683    23.295688    22.146053            0            0            0    9394.5128    2691.7329    3171.9508    598.16381    606.54583   -350.52413    769.99604    18.209683    23.295688    22.146053           90           90           90 
   46500    251.56498   -145.72924   -117.66679   -145.72924            0     546.8138     18.09859    23.342768    21.922285            0            0            0    9261.5338    1180.2046   -267.32173    727.55855    1427.3111   -439.09889    -181.6571     18.09859    23.342768    21.922285           90           90           90 
   47000    261.63893   -146.51981    -117.3336   -146.51981            0    875.42397    17.914927    23.470649    22.022727            0            0            0    9260.0053    2432.8449    1216.8622   -1023.4352   -690.49589   -391.49998    1258.7709    17.914927    23.470649    22.022727           90           90           90 
   47500    264.11347   -146.46283   -117.00058   -146.46283            0    367.66124     17.91443     23.56483    22.364019            0            0            0    9440.9816    1527.6961    127.24688    -551.9593   -273.72371    1125.6854   -130.80516     17.91443     23.56483    22.364019           90           90           90 
   48000      265.914   -145.83995   -116.17684   -145.83995            0    40.776326    17.876432    23.248303    22.176589            0            0            0    9216.5176    2973.0705   -3491.0621    640.32059    390.16695   -56.019534   -1646.1653    17.876432    23.248303    22.176589           90           90           90 
   48500    266.84052   -146.98063   -117.21417   -146.98063            0    1763.2741    18.156647     23.29606    22.074664            0            0            0    9337.1046    3200.4567    3876.1383   -1786.7728    150.17211    446.60327    631.76695    18.156647     23.29606    22.074664           90           90           90 
   49000    265.75207   -144.92984    -115.2848   -144.92984            0    2080.1216    18.159216    23.337354    21.972935            0            0            0    9311.8672   -389.15584     2240.301    4389.2198     1111.589   -571.30657    -527.5844    18.159216    23.337354    21.972935           90           90           90 
   49500    266.95573   -142.41144   -112.63213   -142.41144            0    2584.7043    17.957687    23.404607      22.1108            0            0            0    9293.0056    3565.0864    9.9057318    4179.1206    678.31476   -247.51208    1792.7328    17.957687    23.404607      22.1108           90           90           90 
   50000    259.97314      -144.55    -115.5496      -144.55            0    417.65599    17.933783    23.441745    22.287847            0            0            0    9369.7921    957.63002    31.884689    263.45326    1229.8995    816.00112      1772.47    17.933783    23.441745    22.287847           90           90           90 
   50500    257.75833    -145.7545   -117.00117    -145.7545            0    1942.9102    17.929961    23.215972    22.039656            0            0            0    9174.2597   -1178.1426    2726.0041     4280.869    938.25278    964.42105   -767.10863    17.929961    23.215972    22.039656           90           90           90 
   51000    248.54924   -144.15322   -116.42718   -144.15322            0     1165.526    18.193986    23.413199    22.080869            0            0            0    9405.9954    282.05975    1063.9511    2150.5671   -833.99219    691.47553   -72.603631    18.193986    23.413199    22.080869           90           90           90 
   51500    257.85148   -146.62864   -117.86492   -146.62864            0    2338.6356    18.051544    23.326286    21.964512            0            0            0    9248.7174    1726.3168    3571.2475    1718.3425    176.83473    1242.8318    1513.1395    18.051544    23.326286    21.964512           90           90           90 
   52000    238.48807   -145.64923   -119.04553   -145.64923            0   -985.31891    17.973729    23.437357    22.195306            0            0            0    9349.9218   -136.15835   -2359.5339    -460.2645   -2337.6587    210.77797    1661.4661    17.973729    23.437357    22.195306           90           90           90 
   52500    250.47349   -144.08134   -116.14064   -144.08134            0   -970.76546    17.929377    23.422366    22.254232            0            0            0    9345.6299    1268.6427   -2018.6233   -2162.3158    742.59785   -704.63953    621.53183    17.929377    23.422366    22.254232           90           90           90 
   53000    255.56764   -146.42985    -117.9209   -146.42985            0    1522.1202    17.969036    23.319531    22.069837            0            0            0    9247.9128    3668.3568   -188.61173    1086.6156   -1801.7373    486.18709    1795.2407    17.969036    23.319531    22.069837           90           90           90 
   53500    248.48929   -145.65593   -117.93658   -145.65593            0   -573.87037    18.201962    23.388826    22.036121            0            0            0     9381.273   -1145.5731   -908.77561    332.73756   -1239.1565    961.07348     918.9679    18.201962    23.388826    22.036121           90           90           90 
   54000    255.51724   -144.76537   -116.26204   -144.76537            0    1615.6652    18.142416    23.228406    22.015222            0            0            0    9277.6422    979.14189    260.10813    3607.7457   -864.70474   -1589.5146    535.62966    18.142416    23.228406    22.015222           90           90           90 
   54500    243.09954    -147.0778   -119.95968    -147.0778            0   -623.68706    17.984647    23.227936    22.252465            0            0            0    9295.8837    2055.7511   -605.50925   -3321.3031    984.42302     308.0377   -966.65087    17.984647    23.227936    22.252465           90           90           90 
   55000    255.07038    -146.0794   -117.62591    -146.0794            0    531.19729    17.871714    23.491259    22.293311            0            0            0    9359.3797    1886.0022   -195.87716   -96.533141    -232.2677   -1104.8751   -139.71091    17.871714    23.491259    22.293311           90           90           90 
   55500    246.38472   -146.33318   -118.84859   -146.33318            0    2492.7523    17.807716    23.564998    21.917052            0            0            0    9197.2452    4394.0379     129.3417    2954.8773    2088.0404   -192.57338    -1154.646    17.807716    23.564998    21.917052           90           90           90 
   56000    260.63084   -145.15933   -116.08557   -145.15933            0     567.6315    18.149578    23.634035    21.955985            0            0            0    9417.9709    2091.6624   -1590.4259     1201.658   -384.83322    491.67692    119.90472    18.149578    23.634035    21.955985           90           90           90 
   56500    259.96399   -144.93435   -115.93498   -144.93435            0    1248.0988    18.230153    23.169028    22.049006            0            0            0    9312.9467   -717.95099    3876.7008    585.54646   -692.49971    10.778561    923.03148    18.230153    23.169028    22.049006           90           90           90 
   57000     260.8704   -145.89004   -116.78955   -145.89004            0    3739.1772    18.084092    22.963366    22.166593            0            0            0    9205.1569    5811.7986    6411.1122   -1005.3792    450.72702   -831.33418    1765.0866    18.084092    22.963366    22.166593           90           90           90 
   57500     252.8206   -145.40617   -117.20365   -145.40617            0   -4.2612512    18.078726    23.281075    22.236518            0            0            0    9359.1764    1257.3448   -1791.1806     521.0521    2147.7535    15.248962   -2050.8115    18.078726    23.281075    22.236518           90           90           90 
   58000     247.5007   -144.70395   -117.09488   -144.70395            0    2500.7753    18.015355    23.461011    22.041783            0            0            0    9316.1453    2083.2057    2810.1368    2608.9834   -1464.9351    1109.1179   -671.73911    18.015355    23.461011    22.041783           90           90           90 
   58500    258.15061     -146.682   -117.88491     -146.682            0    1785.9139    17.983878    23.511209    22.000298            0            0            0    9302.2257    2642.4023    257.54388    2457.7955    622.07704    150.46781    1798.6879    17.983878    23.511209    22.000298           90           90           90 
   59000    264.18925   -145.48216   -116.01146   -145.48216            0   -920.36172    18.003915    23.338433    22.074188            0            0            0     9275.202     -3119.76   -852.31907    1210.9939   -1194.6648   -1834.4323   -1370.6143    18.003915    23.338433    22.074188           90           90           90 
   59500    256.58911   -145.55374   -116.93084   -145.55374            0    2146.9595    18.061906    23.281311    22.252921            0            0            0    9357.4612    3734.3006    2388.6213    317.95657      1369.07    2389.0692   -1420.1639    18.061906    23.281311    22.252921           90           90           90 
   60000    240.28203    -144.4347   -117.63088    -144.4347            0   -24.312455    18.026902    23.358109    22.181665            0            0            0    9340.1304   -1832.9256    100.41034    1659.5779    309.34529   -214.32691    433.60932    18.026902    23.358109    22.181665           90           90           90 
   60500    244.91411   -145.37416   -118.05362   -145.37416            0    545.12978    18.012164    23.469232    22.009287            0            0            0    9304.0219    2577.7566   -1327.2322    384.86496    2049.1771    678.55326    -733.6378    18.012164    23.469232    22.009287           90           90           90 
   61000    257.57725   -146.10059   -117.36746   -146.10059            0    1797.8488    17.993609    23.525918    21.979736            0            0            0    9304.3777    310.75278    1550.9571    3531.8364    3252.5863    -549.3367   -959.35452    17.993609    23.525918    21.979736           90           90           90 
   61500    249.61485   -144.91479   -117.06988   -144.91479            0    1914.5504     17.98781    23.409524    22.109182            0            0            0    9309.8687    2859.8437   -1175.0669    4058.8744   -1569.4129    -265.9008   -54.066215     17.98781    23.409524    22.109182           90           90           90 
   62000    256.96347   -144.86887    -116.2042   -144.86887            0    683.89467    18.122565    23.277632    22.274984            0            0            0    9396.7113     1943.492    2151.2627   -2043.0707    1433.8583   -66.108005    1552.1832    18.122565    23.277632    22.274984           90           90           90 
   62500    262.86975   -146.26148   -116.93797   -146.26148            0     959.0842    18.049359    23.082158    22.015048            0            0            0    9171.8686    3762.8868    53.670183   -939.30443   -252.88115    1112.3799    683.89528    18.049359    23.082158    22.015048           90           90           90 
   63000    269.88567   -145.07754   -114.97139   -145.07754            0   -480.57561    18.199443    23.532087    22.035738            0            0            0    9437.2646    136.22994   -1475.5298   -102.42694    717.74853   -65.168827    78.759224    18.199443    23.532087    22.035738           90           90           90 
   63500    252.29026   -145.72294   -117.57959   -145.72294            0   -1065.2848    18.033309    23.615645    21.979549            0            0            0    9360.3915    1660.7744    -7124.121    2267.4921   -820.70516    1285.8173   -170.49836    18.033309    23.615645    21.979549           90           90           90 
   64000    253.50425    -144.6765   -116.39772    -144.6765            0   -483.19396    17.840119    23.434941    22.185287            0            0            0    9275.2719   -2059.2538    212.09469    397.57726   -889.98011    -738.3107    226.84255    17.840119    23.434941    22.185287           90           90           90 
   64500     257.0351   -145.62408   -116.95143   -145.62408            0    1417.7417    17.901626    23.295972    22.290484            0            0            0    9295.9294   -2222.5446    4183.6063    2292.1634     281.3673    1373.0173   -1962.6403    17.901626    23.295972    22.290484           90           90           90 
   65000    243.69042    -146.4504   -119.26637    -146.4504            0    212.75929    18.093991    23.252095    22.093885            0            0            0    9295.4098    107.82405   -41.450987    571.90482    403.24791   -843.88877    873.60939    18.093991    23.252095    22.093885           90           90           90 
   65500     251.3704   -145.85593   -117.81519   -145.85593            0    1029.1782    18.262559    23.372915    21.929883            0            0            0    9360.7538    -552.4581   -277.46023     3917.453   -338.65878    1973.4993   -1190.5117    18.262559    23.372915    21.929883           90           90           90 
   66000    258.61178   -144.56666   -115.71813   -144.56666            0    2180.7247     18.09334    23.358298    21.947164            0            0            0    9275.5216    2687.4327    65.168881    3789.5724   -528.42941   -1010.8637    1433.1464     18.09334    23.358298    21.947164           90           90           90 
   66500    261.45562   -145.34069   -116.17492   -145.34069            0    1897.9036    17.927248    23.342702    22.187384            0            0            0    9284.7637   -273.92906    3764.6316    2203.0084    1001.1389   -1273.4766   -587.66488    17.927248    23.342702    22.187384           90           90           90 
   67000    253.52073   -145.82115   -117.54053   -145.82115            0    3046.4226    17.916631    23.437642    22.304477            0            0            0    9366.1758    1623.1908    2038.3551    5477.7219    258.42324    -381.5281    727.38753    17.916631    23.437642    22.304477           90           90           90 
   67500    251.79711   -145.99866   -117.91032   -145.99866            0    1264.2387    17.980284    23.398789    22.013807            0            0            0    9261.5796    4120.7312   -2405.2516    2077.2366    767.54487   -1783.9016   -372.48031    17.980284    23.398789    22.013807           90           90           90 
   68000    256.77108   -146.59928   -117.95608   -146.59928            0     2784.285    18.210222    23.399189     21.90647            0            0            0    9334.4433    1682.2514     2292.202    4378.4016   -761.86275   -560.09234   -776.57085    18.210222    23.399189     21.90647           90           90           90 
   68500    257.66766   -145.99421   -117.25099   -145.99421            0   -2672.9481    18.180007     23.27627    22.108894            0            0            0    9355.6608    -5642.727   -1100.0375   -1276.0799   -28.565952     290.7634    1447.1193    18.180007     23.27627    22.108894           90           90           90 
   69000    252.31638   -147.09161   -118.94534   -147.09161            0    1564.3865    17.873628    23.206131    22.375517            0            0            0    9280.8668    2018.4803    3064.4515   -389.77222    462.26805    -578.6041   -932.39556    17.873628    23.206131    22.375517           90           90           90 
   69500    251.95474   -146.88399   -118.77806   -146.88399            0    2622.5394    17.776842    23.442446    22.201579            0            0            0    9252.1232    4284.8359   -781.75916    4364.5413   -291.48499    32.267076    113.13838    17.776842    23.442446    22.201579           90           90           90 
   70000    245.06074   -145.14937   -117.81248   -145.14937            0    289.73731    17.983623    23.643554    21.821924            0            0            0    9278.6115   -36.327869    433.83398    471.70583   -1017.3759   -84.142492   -1082.9301    17.983623    23.643554    21.821924           90           90           90 
   70500    244.35152   -145.29424   -118.03646   -145.29424            0   -1514.5263    18.220394    23.536868      21.8579            0            0            0    9373.7824   -1682.1333   -4621.3783    1759.9327    -997.2471   -422.03129    1242.5431    18.220394    23.536868      21.8579           90           90           90 
   71000    250.74851   -145.59363   -117.62226   -145.59363            0    1760.4195    18.117501    23.139443      22.2003            0            0            0    9307.0067    1888.0928    1962.5993    1430.5664     277.8487   -2213.2468   -746.39468    18.117501    23.139443      22.2003           90           90           90 
   71500    249.44214   -145.55353   -117.72788   -145.55353            0    -729.3105    18.020827    23.113108    22.294446            0            0            0    9286.0233    2103.6575   -1242.0415   -3049.5476   -1010.7815    773.08634   -977.14648    18.020827    23.113108    22.294446           90           90           90 
   72000    263.27702   -143.89787   -114.52892   -143.89787            0    4844.2425    17.970981    23.339432      22.0936            0            0            0    9266.7738    7393.0529    7593.5997   -453.92501    -1338.552   -252.36133    1878.9404    17.970981    23.339432      22.0936           90           90           90 
   72500    252.71123   -144.49238   -116.30206   -144.49238            0    1517.4039    18.056831     23.57976    21.988527            0            0            0    9362.1812    1730.4873    1351.0335    1470.6908   -903.77238   -2241.5579    267.10413    18.056831     23.57976    21.988527           90           90           90 
   73000    255.75266   -146.50054   -117.97095   -146.50054            0    -2222.201    18.039639    23.487231    22.037501            0            0            0    9337.3148    -878.5468   -4033.5284   -1754.5277    280.96332    1025.0614    2669.8523    18.039639    23.487231    22.037501           90           90           90 
   73500    261.00636   -146.08241   -116.96676   -146.08241            0     2038.186    17.962426    23.239876    22.095723            0            0            0    9223.7391    1647.3821    4335.3288    131.84709   -855.41265   -828.75466    1422.2985    17.962426    23.239876    22.095723           90           90           90 
   74000    250.02391   -146.08097   -118.19043   -146.08097            0    4427.6413    18.070492     23.22731     22.18095            0            0            0    9309.9863    5099.2038    4673.3343    3510.3856   -238.50866    759.57451    1.4974345    18.070492     23.22731     22.18095           90           90           90 
   74500    250.67901   -144.75225   -116.78863   -144.75225            0   -2711.1678    18.117879    23.346915    22.130306            0            0            0    9361.0439   -5506.8278   -2609.8494   -16.826374    1101.6054    242.90096     713.0417    18.117879    23.346915    22.130306           90           90           90 
   75000    253.65693   -144.91444   -116.61862   -144.91444            0    4029.0535    17.999547    23.429879    21.929152            0            0            0    9248.1201    3860.2168    2705.0678     5521.876   -195.02586     9.911051   -659.99711    17.999547    23.429879    21.929152           90           90           90 
   75500    254.40781   -146.61816   -118.23859   -146.61816            0    786.75567    17.950672    23.520144    22.037478            0            0            0    9304.2755    1687.7709   -1500.9982    2173.4943    -297.4422   -435.15579    251.27882    17.950672    23.520144    22.037478           90           90           90 
   76000    258.60161   -146.32824   -117.48084   -146.32824            0    -1375.676    17.956591    23.452189    22.281169            0            0            0    9383.0764   -217.79331   -1464.6643   -2444.5703    852.81011   -302.51578    1459.2373    17.956591    23.452189    22.281169           90           90           90 
   76500    244.13488   -147.99996   -120.76635   -147.99996            0    2119.2074    17.953072    23.046536    22.115752            0            0            0     9150.528    3228.4571    3095.4273    33.737718     733.7231    1494.3032   -956.01543    17.953072    23.046536    22.115752           90           90           90 
   77000    246.43416   -147.31011   -119.82001   -147.31011            0    75.595431     18.27241    23.175448     22.00184            0            0            0    9317.1476    1616.9476    12.197074   -1402.3584   -780.22316    81.450713    907.96088     18.27241    23.175448     22.00184           90           90           90 
   77500    251.49839   -146.04483   -117.98981   -146.04483            0    912.95399    18.184614    23.318832    21.948737            0            0            0    9307.2291    914.97028   -32.101592    1855.9933    -197.7601     753.8248   -510.73506    18.184614    23.318832    21.948737           90           90           90 
   78000    269.57921   -145.59645   -115.52448   -145.59645            0    2078.5709     17.93045    23.473681    22.128887            0            0            0    9313.9084    1209.4487    651.60496    4374.6591   -3279.5859    2252.2419   -708.93476     17.93045    23.473681    22.128887           90           90           90 
   78500    252.41071   -147.18554   -119.02875   -147.18554            0   -517.15095    17.908673    23.599987    22.258037            0            0            0    9407.2357   -500.13302    1456.0427   -2507.3626   -857.43711   -1580.7652    862.74431    17.908673    23.599987    22.258037           90           90           90 
   79000    244.85016   -145.89034   -118.57694   -145.89034            0    2035.6885    17.901219    23.251187    22.014202            0            0            0    9162.8522    3329.5035    2098.7792    678.78275   -99.554989    29.098291    831.01858    17.901219    23.251187    22.014202           90           90           90 
   79500    264.95497   -145.75304   -116.19691   -145.75304            0   -843.34274    18.180435    23.283265    22.121599            0            0            0    9364.0704   -339.53616    1122.3689    -3312.861    1643.4452    828.86956    -1693.796    18.180435    23.283265    22.121599           90           90           90 
   80000     269.6628   -146.17208   -116.09079   -146.17208            0     2239.796    18.165143    23.262428    22.058313            0            0            0    9321.0786    2915.1271    2232.8862    1571.3747     216.8123   -1830.6382    307.12555    18.165143    23.262428    22.058313           90           90           90 
   80500    249.17482   -144.91938   -117.12356   -144.91938            0   -1161.1557    18.013434    23.355541    22.066564            0            0            0    9283.7015   -352.42585    884.61943   -4015.6607   -189.47127   -1136.8229   -239.22879    18.013434    23.355541    22.066564           90           90           90 
   81000    256.67168    -146.4212   -117.78909    -146.4212            0    2500.9509    17.903835    23.553059    22.114028            0            0            0     9325.266    6119.9816      464.402    918.46895   -496.65917    666.97884    503.88553    17.903835    23.553059    22.114028           90           90           90 
   81500     252.2434   -146.20488   -118.06675   -146.20488            0    1261.1335    17.893375     23.52258    22.054731            0            0            0    9282.7999   -888.14313    883.37927    3788.1645    250.92036    900.98504   -1098.4589    17.893375     23.52258    22.054731           90           90           90 
   82000    250.64508   -146.63296   -118.67313   -146.63296            0    -100.5652    18.069203    23.304852    22.078754            0            0            0    9297.3657    560.48691   -530.95934   -331.22318    712.83264   -630.05846   -483.40516    18.069203    23.304852    22.078754           90           90           90 
   82500    263.90166   -144.77992   -115.34129   -144.77992            0    2863.3829    18.243631     23.12294     22.10932            0            0            0     9326.737    1623.4537    2857.8816    4108.8135      3497.01   -64.988666   -79.725814    18.243631     23.12294     22.10932           90           90           90 
   83000     259.5494   -145.05796   -116.10483   -145.05796            0    2619.6841     18.18285    23.267321    22.105416            0            0            0    9352.0544   -1392.0811    4694.3034      4556.83    624.92996    1453.3063    1272.6231     18.18285    23.267321    22.105416           90           90           90 
   83500     259.5567   -146.10026   -117.14632   -146.10026            0    326.25125    17.860168    23.610923    22.091833            0            0            0    9316.0164    2122.3949    202.08666   -1345.7278    64.516733   -2353.3616   -723.02303    17.860168    23.610923    22.091833           90           90           90 
   84000    275.12608   -145.82058   -115.12985   -145.82058            0    1272.5062    17.691735    23.820056    22.098153            0            0            0    9312.5619    3976.8441   -1415.9292    1256.6035    1157.9301    25.914114   -382.96429    17.691735    23.820056    22.098153           90           90           90 
   84500     260.0368   -145.72266   -116.71516   -145.72266            0    2950.5484    17.908765    23.556424    22.128592            0            0            0    9335.3112    4842.8455    1735.4917    2273.3081    886.94856    172.39448    572.39806    17.908765    23.556424    22.128592           90           90           90 
   85000    252.34116   -145.88332   -117.73429   -145.88332            0    607.52465    18.264244    23.046594    22.113195            0            0            0    9308.0766    519.75868    1124.9361     177.8792    1604.4861   -1790.9291   -3023.7503    18.264244    23.046594    22.113195           90           90           90 
   85500    261.44156   -145.31238   -116.14818   -145.31238            0    1540.1435    18.325759    23.056675    22.089601            0            0            0    9333.5426     1428.828     4490.248   -1298.6454   -1038.3529    395.74785   -392.76921    18.325759    23.056675    22.089601           90           90           90 
   86000    247.36549   -145.08581   -117.49181   -145.08581            0    2452.9471    18.148315    23.355931    22.085124            0            0            0    9361.2391    2246.8742    1362.6083    3749.3588   -341.11996    293.01011    1449.6027    18.148315    23.355931    22.085124           90           90           90 
   86500    245.94162   -145.77825   -118.34309   -145.77825            0   -1259.9325    17.945782     23.55892    22.065377            0            0            0    9328.8717    -1411.169    -373.0993   -1995.5292    148.99553    610.00215   -189.24612    17.945782     23.55892    22.065377           90           90           90 
   87000    241.11371    -146.0126     -119.116    -146.0126            0   -2847.8016    17.912701    23.569568    22.110401            0            0            0    9334.8921   -4140.5518   -2015.1666   -2387.6864   -2872.3057    456.80404     1274.031    17.912701    23.569568    22.110401           90           90           90 
   87500    248.47766    -145.5892   -117.87114    -145.5892            0    2404.9551    18.022855    23.369701    22.183133            0            0            0    9343.2857    3353.7471    4355.2679   -494.14978    721.74089   -1179.9097    1838.2473    18.022855    23.369701    22.183133           90           90           90 
   88000    259.75704    -146.3074   -117.33111    -146.3074            0    3462.1351      18.1946    23.212783    22.196939            0            0            0    9374.8175    3983.7206     3099.519    3303.1657   -658.65652   -251.74399   -242.23538      18.1946    23.212783    22.196939           90           90           90 
   88500    247.57497   -145.83513   -118.21777   -145.83513            0    2435.0467     18.18649    23.183718    22.021732            0            0            0     9285.033    2166.2129    2360.2254    2778.7018   -1119.9658    1135.8865   -836.31161     18.18649    23.183718    22.021732           90           90           90 
   89000     250.2807   -148.32286   -120.40367   -148.32286            0    1309.3126    18.033946    23.424675     22.04858            0            0            0    9314.1871    2201.4873    1379.2229    347.22765    847.75511    28.870935    1226.3606    18.033946    23.424675     22.04858           90           90           90 
   89500     247.6212   -147.60822    -119.9857   -147.60822            0    -1287.959    17.911021    23.654088    22.186961            0            0            0    9399.9241      1538.98   -2186.9195   -3215.9375     804.8781    356.99609   -259.70393    17.911021    23.654088    22.186961           90           90           90 
   90000    244.75102   -147.61277   -120.31042   -147.61277            0    4236.1467    17.845638    23.435824    22.077489            0            0            0    9233.4073    4503.4967    5252.1244    2952.8191   -230.33344   -232.74948      906.845    17.845638    23.435824    22.077489           90           90           90 
   90500    262.29222   -147.19708   -117.93799   -147.19708            0    43.114878    18.077992    23.365753    22.199459            0            0            0    9377.1824     254.2032    1074.0114     -1198.87   -255.75588   -878.43934   -1323.4608    18.077992    23.365753    22.199459           90           90           90 
   91000    253.94802   -145.92109    -117.5928   -145.92109            0   -862.79763    18.154087     23.19381    22.098936            0            0            0    9305.0319   -1118.0539    487.80259   -1958.1415   -2419.9224   -1143.1569   -761.94065    18.154087     23.19381    22.098936           90           90           90 
   91500    237.43586   -146.62195   -120.13563   -146.62195            0    2323.9683    18.131728    23.304401    22.000272            0            0            0    9296.1941    4916.7407    1710.5767    344.58745    1148.4851    384.74104   -69.693603    18.131728    23.304401    22.000272           90           90           90 
   92000    256.30013     -147.212   -118.62133     -147.212            0    2593.7548    18.008198    23.560018    22.086829            0            0            0     9370.856    4001.7265    3083.4114    696.12641    2140.4781   -1648.3427    1423.4394    18.008198    23.560018    22.086829           90           90           90 
   92500    251.71211   -146.19379   -118.11493   -146.19379            0    2271.5587    17.719669    23.534169    22.187785            0            0            0    9252.6987    1810.0508    2077.9547    2926.6707   -511.33575    2473.8817   -1020.3477    17.719669    23.534169    22.187785           90           90           90 
   93000    248.36989   -145.41784    -117.7118   -145.41784            0    419.11028    17.826475     23.46392    22.235909            0            0            0    9300.8132    331.52751    -1837.284    2763.0873    534.32743    953.16915     394.4895    17.826475     23.46392    22.235909           90           90           90 
   93500    257.85888   -147.13507   -118.37052   -147.13507            0    102.75347    18.235992    23.298435    22.020537            0            0            0    9355.8669    10.625667    897.56252   -599.92779    2407.9366    43.058309    321.25625    18.235992    23.298435    22.020537           90           90           90 
   94000    250.41875   -146.25486   -118.32027   -146.25486            0   -1190.6895    18.378527    23.172602    21.837806            0            0            0    9300.2475   -3148.1683   -352.19969   -71.700625    638.11454   -420.70758   -673.35831    18.378527    23.172602    21.837806           90           90           90 
   94500    253.76589    -146.6177   -118.30973    -146.6177            0    3856.1677    18.111113    23.300614    22.075569            0            0            0     9315.891    5658.3054    813.41194    5096.7858     573.3856   -1157.2434   -196.88552    18.111113    23.300614    22.075569           90           90           90 
   95000    244.46438   -147.35083   -120.08046   -147.35083            0    1981.5705    17.852154    23.427085     22.25901            0            0            0    9309.2507    2033.8818    1872.1219    2038.7077   -965.33406   -343.89834   -1360.8793    17.852154    23.427085     22.25901           90           90           90 
   95500      255.926    -146.3075   -117.75857    -146.3075            0    939.41407    17.906857    23.529846    22.223425            0            0            0     9363.742     2465.913    419.74073   -67.411548    2827.1091   -225.55269    276.70048    17.906857    23.529846    22.223425           90           90           90 
   96000    266.30824   -145.93539   -116.22831   -145.93539            0    2915.3626    18.001588     23.42586    21.966467            0            0            0    9263.3181    2834.9776     1818.458    4092.6522   -289.75811   -281.29884    -1449.545    18.001588     23.42586    21.966467           90           90           90 
   96500    254.33034   -145.26539   -116.89445   -145.26539            0   -542.37481    18.134817    23.402125     21.99925            0            0            0    9336.3333   -1663.7439   -1201.7501    1238.3696   -143.87046   -203.88427   -148.44561    18.134817    23.402125     21.99925           90           90           90 
   97000    247.12289   -144.58826   -117.02133   -144.58826            0    1368.5758    18.188153    23.335437    22.131227            0            0            0    9393.1232    1367.6873    2758.3455    -20.30524   -1556.4073    258.61388   -982.40229    18.188153    23.335437    22.131227           90           90           90 
   97500    252.45718    -145.3715   -117.20952    -145.3715            0     1424.515     18.02735    23.166113    22.148555            0            0            0    9249.7598   -786.23443    1095.5554     3964.224    717.89141   -704.58082   -1514.1339     18.02735    23.166113    22.148555           90           90           90 
   98000    250.52421   -146.84487   -118.89852   -146.84487            0    3134.3913    17.929174    23.357199    22.209864            0            0            0    9300.9422    3043.5695    1660.2754    4699.3291    828.98961   -648.46874    795.62371    17.929174    23.357199    22.209864           90           90           90 
   98500    256.36215   -146.18294   -117.58536   -146.18294            0    648.37689    17.969712    23.607476    22.092487            0            0            0    9372.0646    2943.6726    732.42465   -1730.9666   -646.06289   -504.91443    494.00911    17.969712    23.607476    22.092487           90           90           90 
   99000    255.04373   -146.12169   -117.67118   -146.12169            0    3430.7446    18.032389    23.539061     21.85405            0            0            0    9276.2907    5265.1842    748.16748    4278.8822    866.91044     1154.056    1215.8312    18.032389    23.539061     21.85405           90           90           90 
   99500    255.44804   -143.86208   -115.36647   -143.86208            0   -775.54862     18.10184    23.326469    22.066975            0            0            0    9317.8244   -1113.1171   -1012.6132   -200.91556   -658.92087   -1219.3755    862.42702     18.10184    23.326469    22.066975           90           90           90 
  100000    252.97524   -145.18681   -116.96704   -145.18681            0    70.298366    18.057123    23.104774    22.359734            0            0            0    9328.6093    3536.8729   -815.17269   -2510.8051    1626.9035    137.70533    546.43315    18.057123    23.104774    22.359734           90           90           90 
  100500    264.22088   -146.38228   -116.90804   -146.38228            0    3205.3082    18.053374    23.256309    22.271665            0            0            0    9350.8664     2120.884    4381.1013    3113.9395    1305.3158   -686.47148   -279.95222    18.053374    23.256309    22.271665           90           90           90 
  101000    259.10791   -146.71027    -117.8064   -146.71027            0    1141.7017    18.030061    23.571534    21.899002            0            0            0    9306.9926    2748.4922    37.562261    639.05066    392.36708    3.8739595   -1006.6443    18.030061    23.571534    21.899002           90           90           90 
  101500    250.17674   -145.33274   -117.42515   -145.33274            0    852.34208    17.953169    23.654964    21.845225            0            0            0    9277.2643    424.43088    205.49288    1927.1025   -2022.5487    -334.8662     884.5397    17.953169    23.654964    21.845225           90           90           90 
  102000    251.63189   -145.76168   -117.69176   -145.76168            0    1880.8891    17.929087    23.498292    22.205339            0            0            0    9355.1743    1216.6493    170.70895    4255.3091    458.40611   -587.62269   -691.79918    17.929087    23.498292    22.205339           90           90           90 
  102500    242.78081   -145.17889   -118.09632   -145.17889            0   -1219.7433     17.99524    23.194017    22.319608            0            0            0    9315.8004   -792.12667   -1426.1868   -1440.9164   -607.84273   -153.59847    788.99078     17.99524    23.194017    22.319608           90           90           90 
  103000    251.23902   -144.89571   -116.86962   -144.89571            0    1396.6419    18.128535    23.197146    22.141608            0            0            0    9311.2166    1150.9645    1601.5585    1437.4027   -3134.0322   -48.236879   -718.24995    18.128535    23.197146    22.141608           90           90           90 
  103500     244.3025    -145.9469   -118.69459    -145.9469            0    858.93999    18.150572    23.355829    21.968241            0            0            0    9312.8129    822.17237   -467.83867    2222.4863    1603.3237   -181.52739      659.241    18.150572    23.355829    21.968241           90           90           90 
  104000    256.86396   -145.58445   -116.93089   -145.58445            0     1242.921    18.005796    23.493321    22.008148            0            0            0    9309.7974    3640.2196   -1803.9807     1892.524   -2077.3527   -1041.9211    2057.4077    18.005796    23.493321    22.008148           90           90           90 
  104500    251.81602   -146.34037   -118.24991   -146.34037            0    2961.4955    17.948213    23.521718    22.186064            0            0            0     9366.353    4205.9414    2095.3708    2583.1743    1008.3193    570.18624    898.88752    17.948213    23.521718    22.186064           90           90           90 
  105000    261.81939   -145.63519   -116.42884   -145.63519            0   -216.61115    17.961452    23.327699    22.132293            0            0            0     9273.416   -1656.4386    523.40655    483.19856   -324.04753   -23.068377    693.79695    17.961452    23.327699    22.132293           90           90           90 
  105500     259.2472   -144.94798   -116.02856   -144.94798            0   -250.30362    18.116257    23.297248    22.130066            0            0            0    9340.1926    756.32387    2286.3599   -3793.5946    1818.2248    988.22582   -1396.8395    18.116257    23.297248    22.130066           90           90           90 
  106000    260.77669   -146.19825   -117.10822   -146.19825            0     756.2352    18.234584    23.322202    22.016204            0            0            0    9362.8452   -535.58601     1061.906    1742.3856   -1335.9364    947.09736    325.41717    18.234584    23.322202    22.016204           90           90           90 
  106500     248.9947   -145.56694    -117.7912   -145.56694            0    1960.2436    18.055651    23.342365    21.857095            0            0            0    9211.9259    923.45115    743.95599    4213.3237    47.762816    722.06047   -1551.0987    18.055651    23.342365    21.857095           90           90           90 
  107000    255.07871   -146.38241   -117.92799   -146.38241            0    701.83922    17.938177    23.576539    22.324808            0            0            0    9441.6106   -273.78972    246.56827    2132.7391   -374.69249    2438.0415   -992.57815    17.938177    23.576539    22.324808           90           90           90 
  107500    255.77847   -145.59362   -117.06114   -145.59362            0    1758.7545    17.736462    23.383251    22.289607            0            0            0    9244.3055    4946.0913    2556.6416   -2226.4694     1299.486    515.83856    1302.1556    17.736462    23.383251    22.289607           90           90           90 
  108000    249.68702   -144.24334   -116.39038   -144.24334            0    91.450402    18.007044    23.469572    22.140341            0            0            0    9356.8979    4707.8428   -2617.2145   -1816.2771   -574.64176    742.04535    173.71731    18.007044    23.469572    22.140341           90           90           90 
  108500    257.82666   -144.59057   -115.82962   -144.59057            0    196.56712    18.197872    23.427114    21.941471            0            0            0     9354.167    1980.3966   -816.18911   -574.50612    2096.5068      943.013   -1769.8856    18.197872    23.427114    21.941471           90           90           90 
  109000     250.7918   -145.39612   -117.41992   -145.39612            0    1696.9172    18.134683    23.209818    22.020803            0            0            0    9268.6151    1183.8205    3105.1599    801.77125    315.47911    28.892231   -148.44806    18.134683    23.209818    22.020803           90           90           90 
  109500    271.01749   -146.70594   -116.47353   -146.70594            0    1330.9766    18.084719    23.267084    22.253902            0            0            0    9363.9672    440.16083    3006.0783    546.69056   -1735.7775    872.63223   -443.42185    18.084719    23.267084    22.253902           90           90           90 
  110000    254.02197   -145.68199   -117.34546   -145.68199            0    1145.7498    17.935864     23.40424    22.143454            0            0            0    9295.2743     45.78268    2768.2611    623.20553    709.23688    1096.0924    1397.4339    17.935864     23.40424    22.143454           90           90           90 
  110500     246.2344   -146.21142   -118.74361   -146.21142            0    1074.6191    17.938936    23.545261    22.049673            0            0            0    9313.2731    1721.8732   -437.81431    1939.7984   -134.44915    693.93044    532.15516    17.938936    23.545261    22.049673           90           90           90 
  111000    246.91186   -145.20706   -117.66367   -145.20706            0    1558.4216    18.065669    23.508899    22.049518            0            0            0    9364.5184    1727.5298    3994.0312   -1046.2963   -1375.4008    238.38768     427.8962    18.065669    23.508899    22.049518           90           90           90 
  111500    254.85933   -145.68483   -117.25489   -145.68483            0   -840.01298    18.073809    23.204735    22.067599            0            0            0    9255.1057   -780.32114   -5084.1419    3344.4241    -1919.528    1100.3008     62.62679    18.073809    23.204735    22.067599           90           90           90 
[...]
  373500    243.76156   -145.84376   -118.65179   -145.84376            0     382.3321    17.998004    23.547051    22.036597            0            0            0    9339.1077    2876.7646   -2685.8124     956.0441   -1254.2304    1425.7592    1277.6072    17.998004    23.547051    22.036597           90           90           90 
  374000    254.91096     -144.875    -116.4393     -144.875            0    3191.6734    18.015239    23.427975    21.857023            0            0            0    9224.9876    4673.5439    2032.0141    2869.4622     -1082.18    -116.9107    95.437635    18.015239    23.427975    21.857023           90           90           90 
  374500    254.70553   -143.83081   -115.41802   -143.83081            0    693.35091    18.170661    23.384213    22.205119            0            0            0     9435.102   -2199.5159    2923.7452    1355.8234    551.65851   -644.01139   -497.69651    18.170661    23.384213    22.205119           90           90           90 
  375000    270.12779    -145.3599   -115.22674    -145.3599            0    3209.7666    18.057699    23.189034    22.328852            0            0            0    9349.9967    3073.8942    5053.9098    1501.4957    687.97373    180.42118   -1108.4799    18.057699    23.189034    22.328852           90           90           90 
  375500    250.70641   -145.13721   -117.17054   -145.13721            0    474.91674    17.896658    23.145427     22.14867            0            0            0    9174.5505   -42.469745    333.61366    1133.6063    647.30534    310.25082   -64.788159    17.896658    23.145427     22.14867           90           90           90 
  376000    260.01115   -145.67721   -116.67258   -145.67721            0    1213.9643    18.032712    23.559866    22.095357            0            0            0    9387.1745    1401.3892    728.14226    1512.3616     670.1823    903.08359   -979.73439    18.032712    23.559866    22.095357           90           90           90 
  376500    260.96982   -144.48818    -115.3766   -144.48818            0    444.64472    18.051268     23.62327     22.02536            0            0            0    9392.2736    4151.0817   -2890.7452    73.597669    684.30832   -826.94916   -593.58214    18.051268     23.62327     22.02536           90           90           90 
  377000     248.8336   -146.74711   -118.98935   -146.74711            0    1689.0395    18.019185    23.423743    22.079393            0            0            0    9319.1985    695.81431    3207.8077    1163.4964    952.97846    229.15509   -578.99148    18.019185    23.423743    22.079393           90           90           90 
  377500    244.95218   -145.22916   -117.90438   -145.22916            0    -1423.099    18.043064    23.283011    22.227674            0            0            0    9337.7759   -1037.8974   -633.19433   -2598.2054   -202.41862   -1468.2678   -647.67769    18.043064    23.283011    22.227674           90           90           90 
  378000    256.45953   -146.14538   -117.53693   -146.14538            0    3509.9088    18.014885     23.21857    22.082787            0            0            0    9236.7853    2942.3893    4481.8414    3105.4958    1000.8541    -322.5761   -1072.7264    18.014885     23.21857    22.082787           90           90           90 
  378500    245.95614   -146.00713   -118.57035   -146.00713            0    -90.37501    18.174503    23.512155    22.122781            0            0            0     9453.545   -680.87846   -774.74036    1184.4938   -210.91455    1097.6336   -525.85557    18.174503    23.512155    22.122781           90           90           90 
  379000    251.13983   -144.98615   -116.97113   -144.98615            0    2119.9329    18.049612    23.452676    22.018819            0            0            0    9320.8233    563.15236    3878.6078    1918.0385    1018.4129    674.37736     1393.554    18.049612    23.452676    22.018819           90           90           90 
  379500    256.13015   -146.66312   -118.09141   -146.66312            0     4848.443     17.87019    23.353768    22.136473            0            0            0    9238.3534     5602.152    4248.4105    4694.7666    963.50776    1154.7493   -1407.3842     17.87019    23.353768    22.136473           90           90           90 
  380000     253.1517   -146.27076   -118.03131   -146.27076            0   -3454.4238     18.09684    23.477944    22.444478            0            0            0    9536.1331   -1694.2905   -4664.3151   -4004.6657   -124.52475    1505.6816   -387.62833     18.09684    23.477944    22.444478           90           90           90 
  380500    251.92784   -146.93112   -118.82819   -146.93112            0    1526.0728    18.011007    23.191979    21.946189            0            0            0    9167.1623    4193.2409    1880.7323   -1495.7548   -323.27766   -313.19548    119.76517    18.011007    23.191979    21.946189           90           90           90 
  381000    242.70564    -144.8511   -117.77692    -144.8511            0    2531.2528    18.170472    23.387106    21.890856            0            0            0    9302.6235    3722.9309    1841.3266    2029.5009   -2168.7608    1477.1667    1078.0493    18.170472    23.387106    21.890856           90           90           90 
  381500    261.92869   -143.70827   -114.48973   -143.70827            0   -1899.0768    18.154458    23.525102    22.161537            0            0            0    9464.8705   -1523.0369   -1645.8147   -2528.3788    914.00848   -725.91887   -1238.3194    18.154458    23.525102    22.161537           90           90           90 
  382000    252.06175    -144.9755   -116.85763    -144.9755            0    2963.4325    17.971756    23.385713    22.189824            0            0            0     9325.991    3269.2774    1528.5696    4092.4506    -2042.401   -561.99771    808.72536    17.971756    23.385713    22.189824           90           90           90 
  382500     271.7919    -145.4264    -115.1076    -145.4264            0    975.60894    17.963943    23.367219    22.127644            0            0            0    9288.4631   -324.02183    3348.6872   -97.838564   -329.39822   -1188.0321    869.81386    17.963943    23.367219    22.127644           90           90           90 
  383000    252.33102   -144.12616   -115.97825   -144.12616            0    -1123.023    18.087583    23.465035    22.162475            0            0            0    9406.3252   -571.70003   -1719.6324   -1077.7365    1530.0734    768.96514    282.64512    18.087583    23.465035    22.162475           90           90           90 
  383500    257.58966   -143.35616   -114.62165   -143.35616            0    2789.0562     18.06134    23.393311    22.071512            0            0            0    9325.5346    1748.3188     81.83519    6537.0146   -1000.9092     -924.117    1533.6572     18.06134    23.393311    22.071512           90           90           90 
  384000     245.7459   -144.89112   -117.47779   -144.89112            0    599.45146     18.04185    23.364003    22.108564            0            0            0    9319.4197   -366.66152     73.58009    2091.4358     1893.545   -358.55189   -587.59318     18.04185    23.364003    22.108564           90           90           90 
  384500    247.55582   -145.61746   -118.00223   -145.61746            0   -525.01069    18.025245    23.403622    22.245683            0            0            0    9384.4751   -2350.6595    1633.9215   -858.29407    1780.4544    297.08007    737.73262    18.025245    23.403622    22.245683           90           90           90 
  385000    234.69543    -144.7971   -118.61647    -144.7971            0      5261.91    17.912876    23.301864    22.080326            0            0            0    9216.4036    6696.9752    4807.0847    4281.6702    453.75114    -286.2003    987.51223    17.912876    23.301864    22.080326           90           90           90 
  385500    242.42604   -146.25655   -119.21356   -146.25655            0    661.13089    18.117857    23.416357    22.067784            0            0            0    9362.3502   -3067.0037    1628.0028    3422.3936     196.5217   -1739.4177    640.46051    18.117857    23.416357    22.067784           90           90           90 
  386000    256.64668   -145.99239   -117.36307   -145.99239            0   -691.65898    18.165292    23.414022    22.121754            0            0            0    9408.8805    2522.0936   -2116.0219   -2481.0486   -532.26462   -856.64048    71.386662    18.165292    23.414022    22.121754           90           90           90 
  386500    252.76894   -144.10492   -115.90816   -144.10492            0    2875.7466    17.940234    23.225113    22.152526            0            0            0    9230.1592    1217.7929    3044.5294    4364.9174    1685.1303   -488.67162    115.16981    17.940234    23.225113    22.152526           90           90           90 
  387000     250.5575   -145.09713   -117.14707   -145.09713            0    1863.2218    18.028897    23.526993    22.315617            0            0            0      9465.52    3713.5432    2678.2858   -802.16349   -348.05283   -608.21779    1027.1778    18.028897    23.526993    22.315617           90           90           90 
  387500    252.51866   -145.08719   -116.91836   -145.08719            0    510.37555    17.917821    23.398585    21.998524            0            0            0    9222.9178    97.277685    46.065077    1387.7839    2132.6375    750.46885   -1957.5627    17.917821    23.398585    21.998524           90           90           90 
  388000    245.68956    -146.5824   -119.17536    -146.5824            0     1602.095    18.041409    23.397811    21.993248            0            0            0    9283.9982    2201.5126    3276.3861   -671.61351    1783.3247   -1872.3347    709.06984    18.041409    23.397811    21.993248           90           90           90 
  388500    241.83296   -146.20341   -119.22658   -146.20341            0    1301.4451    18.150242    23.433331    22.110101            0            0            0    9403.8821   -1531.1858    1283.5566    4151.9646    -1753.307    -578.5932   -690.16632    18.150242    23.433331    22.110101           90           90           90 
  389000    246.83703   -146.33234    -118.7973   -146.33234            0    864.83819    17.991596    23.161822    22.102358            0            0            0    9210.4539    1616.0855    1147.7792   -169.35009   -1297.4067   -383.42946    54.534209    17.991596    23.161822    22.102358           90           90           90 
  389500    260.12684   -148.09882   -119.08128   -148.09882            0    928.07113    17.984602    23.214809     22.28475            0            0            0    9304.0859   -256.57042    372.28987    2668.4939    85.492947    761.65194    535.70861    17.984602    23.214809     22.28475           90           90           90 
  390000    247.76984   -147.30445   -119.66535   -147.30445            0    27.589812    18.012595    23.392294    22.167467            0            0            0    9340.3933   -371.75806    964.26839   -509.74089    391.63342   -1942.7967    785.20928    18.012595    23.392294    22.167467           90           90           90 
  390500    247.08398   -145.00839    -117.4458   -145.00839            0    3305.2577    17.946937    23.435693    21.899387            0            0            0    9210.8583    4359.9751    2944.1321    2611.6658    39.599681   -417.62187    1334.6009    17.946937    23.435693    21.899387           90           90           90 
  391000    254.49008   -144.59612   -116.20737   -144.59612            0    -655.0285    18.038456    23.551482    22.148437            0            0            0     9409.373   -2462.6702    3001.6895   -2504.1048   -644.56408   -2063.3197    248.90697    18.038456    23.551482    22.148437           90           90           90 
  391500    260.10773   -143.86851    -114.8531   -143.86851            0    612.75107    17.966615     23.32078    22.246747            0            0            0    9321.2866    2368.6393    -1376.962    846.57594    1606.3364    299.09723    69.075013    17.966615     23.32078    22.246747           90           90           90 
  392000    241.50256   -146.58446   -119.64448   -146.58446            0    851.03203    17.927809    23.171346    22.123144            0            0            0    9190.2073    282.43052    2456.0282   -185.36264    773.20038     163.0315   -160.89653    17.927809    23.171346    22.123144           90           90           90 
  392500    243.99809   -146.92947   -119.71111   -146.92947            0    1438.2025    18.110121    23.425348     22.05183            0            0            0    9355.1779    918.78504   -11.113122    3406.9356    93.219821   -993.21419    1665.0595    18.110121    23.425348     22.05183           90           90           90 
  393000    255.40488    -144.8872    -116.3964    -144.8872            0   -3036.9663    18.154037    23.597113    21.944519            0            0            0    9400.6561   -4540.1404   -4382.6703   -188.08824    131.29368    1923.7242    251.82444    18.154037    23.597113    21.944519           90           90           90 
  393500    274.55956   -145.01533    -114.3878   -145.01533            0    1925.5532    17.852937    23.382665    22.013162            0            0            0     9189.378    3655.9284    1575.5214    545.20971    1436.3092   -657.00721    115.88461    17.852937    23.382665    22.013162           90           90           90 
  394000    255.22962    -146.0999   -117.62865    -146.0999            0    2499.0781     17.79702    23.272527     22.46057            0            0            0    9302.7557    1972.3195    4086.6758    1438.2392    968.51625   -286.62211    1445.6156     17.79702    23.272527     22.46057           90           90           90 
  394500    248.67772   -145.74601   -118.00563   -145.74601            0   -151.41853    17.974915    23.226313    22.422587            0            0            0    9361.2281     1429.635    1615.9513   -3499.8419   -228.07585    1104.0433   -695.46376    17.974915    23.226313    22.422587           90           90           90 
  395000    257.58225   -144.81761   -116.08392   -144.81761            0    2779.0064    18.127555    23.265298    21.905582            0            0            0    9238.5254    4496.6585    2731.4842    1108.8764    159.75923      -2157.5    1935.2083    18.127555    23.265298    21.905582           90           90           90 
  395500    237.23262   -144.71484   -118.25118   -144.71484            0    1931.4079    18.214348    23.484014    21.890762            0            0            0    9363.6864    3753.9494     3471.912   -1431.6376    2262.1898       1340.7   -62.663468    18.214348    23.484014    21.890762           90           90           90 
  396000    247.78109   -146.19531   -118.55496   -146.19531            0     1511.794    18.000472    23.406983    22.136107            0            0            0     9326.755    2738.6187   -933.62924    2730.3924   -970.65413   -637.89392   -263.41222    18.000472    23.406983    22.136107           90           90           90 
  396500     251.5003   -147.21089   -119.15565   -147.21089            0    1946.9226    17.808637    23.225689    22.205967            0            0            0    9184.7846    1690.4563    895.76814    3254.5433    1193.2207    1713.6219    947.12729    17.808637    23.225689    22.205967           90           90           90 
  397000    255.68565   -146.46386   -117.94174   -146.46386            0   -468.02377    18.032548    23.441391    22.254652            0            0            0    9407.2198     24.85079   -109.04397   -1319.8781    1924.8773     925.5131   -1616.6127    18.032548    23.441391    22.254652           90           90           90 
  397500    240.67889    -144.1129   -117.26481    -144.1129            0    3472.9665    18.089297    23.420876    21.946324            0            0            0    9297.9374    2803.3072    4586.5337    3029.0587      685.644   -314.51812    919.94972    18.089297    23.420876    21.946324           90           90           90 
  398000    256.37716   -146.87488   -118.27562   -146.87488            0    2650.3567    18.069163    23.367984    21.969331            0            0            0    9276.3282    1086.1438    1851.6478    5013.2784   -829.66273    291.17299    -1779.498    18.069163    23.367984    21.969331           90           90           90 
  398500    255.91776   -144.44981    -115.9018   -144.44981            0    1262.1306    18.031073    23.409749    22.278452            0            0            0     9403.799    1845.2367    2050.9433   -109.78825   -22.568946    967.74143    2194.1841    18.031073    23.409749    22.278452           90           90           90 
  399000    238.13057     -147.064   -120.50018     -147.064            0   -80.782035    17.926317    23.298402    22.220426            0            0            0     9280.462   -939.64941    433.43411    263.86919    797.13719    1443.5372   -557.88353    17.926317    23.298402    22.220426           90           90           90 
  399500    257.61477    -146.9037   -118.16639    -146.9037            0    2373.9288    17.986909     23.41289    22.068183            0            0            0    9293.4752    1336.9206    3420.5734    2364.2923   -2450.6595   -229.92994    611.58199    17.986909     23.41289    22.068183           90           90           90 
  400000     243.7737   -146.58997   -119.39665   -146.58997            0    2597.7501     18.15539    23.524629    22.009215            0            0            0    9400.1098    2224.6906    905.61805    4662.9415    123.61336   -1958.6016    500.34452     18.15539    23.524629    22.009215           90           90           90 
Loop time of 2096.99 on 1 procs for 400000 steps with 864 atoms

Performance: 8.240 ns/day, 2.912 hours/ns, 190.750 timesteps/s
75.3% CPU use with 1 MPI tasks x 1 OpenMP threads

MPI task timing breakdown:
Section |  min time  |  avg time  |  max time  |%varavg| %total
---------------------------------------------------------------
Pair    | 1819.4     | 1819.4     | 1819.4     |   0.0 | 86.76
Bond    | 0.067765   | 0.067765   | 0.067765   |   0.0 |  0.00
Neigh   | 246.92     | 246.92     | 246.92     |   0.0 | 11.77
Comm    | 8.2107     | 8.2107     | 8.2107     |   0.0 |  0.39
Output  | 6.2458     | 6.2458     | 6.2458     |   0.0 |  0.30
Modify  | 14.52      | 14.52      | 14.52      |   0.0 |  0.69
Other   |            | 1.597      |            |       |  0.08

Nlocal:        864.000 ave         864 max         864 min
Histogram: 1 0 0 0 0 0 0 0 0 0
Nghost:        3739.00 ave        3739 max        3739 min
Histogram: 1 0 0 0 0 0 0 0 0 0
Neighs:         0.00000 ave           0 max           0 min
Histogram: 1 0 0 0 0 0 0 0 0 0
FullNghs:      167440.0 ave      167440 max      167440 min
Histogram: 1 0 0 0 0 0 0 0 0 0

Total # of neighbors = 167440
Ave neighs/atom = 193.79630
Ave special neighs/atom = 0.0000000
Neighbor list builds = 40000
Dangerous builds not checked

unfix		3
unfix		2

write_data	data.final.${pid}
write_data	data.final.0
System init for write_data ...

write_restart   restart.lmp.${pid}
write_restart   restart.lmp.0
System init for write_restart ...
Unloading pair style deepmd
Unloading compute style deepmd
Unloading fix style deepmd
Total wall time: 0:35:22
