LAMMPS data file via write_data, version 29 Sep 2021, timestep = 400000

1008 atoms
2 atom types

0.21045875429070549 18.189096245709564 xlo xhi
-0.14240788182505426 22.712796881825746 ylo yhi
0.081633539417167 19.424082460581943 zlo zhi
0.10740231817340948 -6.494890739786807 -0.14459343141445347 xy xz yz

Masses

1 1.008
2 15.999

Atoms # full

1 0 1 0 6.59582747765741 1.036150865377353 5.089204628131098 0 0 0
2 0 2 0 6.813214129779293 1.7741958505941073 5.697374267988059 0 0 0
3 0 2 0 5.6049991134105674 0.9679882588310467 4.984658840483901 0 0 0
4 0 1 0 3.857897720873667 0.9866893434822499 5.0534120761615835 0 0 0
5 0 2 0 3.342625254226424 0.14626579583250013 4.982221909648175 0 0 0
6 0 2 0 3.6312990894465793 1.5529454263781144 4.344444030030771 0 0 0
7 0 1 0 -0.3649360660677696 6.3491170057158675 5.467581914312782 0 0 0
8 0 2 0 -0.33891482915692217 5.740174448456684 6.219334328733348 0 0 0
9 0 2 0 -0.5471665395410682 5.782931694410395 4.652195609496687 0 0 0
10 0 1 0 2.3983899794485706 6.336160128512867 4.869097902056251 0 0 0
11 0 2 0 2.864329209950828 5.497856600113718 5.081735201023731 0 0 0
12 0 2 0 1.4621647571645375 6.2435814268904934 5.070550163675015 0 0 0
13 0 1 0 5.285624017956389 4.752728098972019 9.698974416302423 0 0 0
14 0 2 0 4.425735575737239 4.305101914109881 9.65053881588 0 0 0
15 0 2 0 5.238166660934154 5.421268674039865 10.390666880862883 0 0 0
16 0 1 0 5.572125681729367 4.827719817743104 0.5807940289669464 0 0 0
17 0 2 0 6.436345832313193 4.425743824044842 0.42893598048306275 0 0 0
18 0 2 0 4.9509790167209005 4.123207426375139 0.4240797284980043 0 0 0
19 0 1 0 -4.916143110193186 2.6569245485202924 19.225664794108994 0 0 -1
20 0 2 0 -5.36086443960275 1.921792876598248 18.830365751611808 0 0 -1
21 0 2 0 1.496047312655588 2.522853545260486 0.8198957311155358 0 0 0
22 0 1 0 0.33523691408156253 2.189003820489526 9.813709019822529 0 0 0
23 0 2 0 0.5833304340120273 1.3804837494875684 10.265434256793277 0 0 0
24 0 2 0 1.0314399203712932 2.8580033273749583 9.817932115675044 0 0 0
25 0 1 0 5.222063143701819 6.249059419783278 7.346417938734682 0 0 0
26 0 2 0 5.2735281180130515 5.531720963916691 6.675078621671655 0 0 0
27 0 2 0 5.3647392637387155 5.726152599908226 8.254635378805348 0 0 0
28 0 1 0 5.84214086140479 6.273369869699945 2.648405530154397 0 0 0
29 0 2 0 5.43895797183746 7.162503912102658 2.4915957826458563 0 0 0
30 0 2 0 5.606821501867547 5.782479238027304 1.857856899874604 0 0 0
31 0 1 0 1.1934799523243143 1.3923528071038525 2.3746117615259346 0 0 0
32 0 2 0 0.9282877289484948 1.895942585687679 3.1448260832500243 0 0 0
33 0 2 0 0.5126846969589832 0.7920739992885375 2.0437092194610065 0 0 0
34 0 1 0 0.2849146661798434 1.368674842765934 7.122044545014125 0 0 0
35 0 2 0 0.3688268485683759 1.9484906127770572 7.962944854990217 0 0 0
36 0 2 0 -0.47282972628219566 0.8724089441699716 7.404957611732256 0 0 0
37 0 1 0 6.454520307902185 2.160160352877933 2.5814321842291377 0 0 0
38 0 2 0 6.423655316271603 1.5816448788216984 1.777064061162934 0 0 0
39 0 2 0 6.61291566579121 1.5740234977570293 3.3230091305186273 0 0 0
40 0 1 0 4.514608107096796 2.2802838260525613 7.42758538852774 0 0 0
41 0 2 0 4.431899617188439 1.6026743912007464 6.7255270238179605 0 0 0
42 0 2 0 4.244908871816045 1.7839550083709912 8.240968467441304 0 0 0
43 0 1 0 -0.004048414012083779 4.505884074036032 7.536014670257272 0 0 0
44 0 2 0 -0.16456993409888288 5.049133734621945 8.37445738611809 0 0 0
45 0 2 0 0.8937638819419029 4.5373090202545185 7.353354429713379 0 0 0
46 0 1 0 2.3915345480198766 5.0481834505444505 2.3051552144329714 0 0 0
47 0 2 0 2.3592862218827477 5.427706716505316 1.373442663077179 0 0 0
48 0 2 0 2.748113219515022 5.818537659424089 2.8228427130400626 0 0 0
49 0 1 0 6.922984087986308 3.329261481748314 6.7788474747914185 0 0 0
50 0 2 0 6.084376242954808 2.879684436259978 6.9864387906961 0 0 0
51 0 2 0 6.750901321713858 3.8265502111158027 5.9630603338539085 0 0 0
52 0 1 0 3.8605467999541263 2.9781564920515504 3.2004404118570764 0 0 0
53 0 2 0 4.660874302850705 2.6365069685089897 2.787641993177821 0 0 0
54 0 2 0 3.37713429912765 3.658165131799276 2.6668051496182428 0 0 0
55 0 1 0 -0.0878985295818222 4.602235872154719 3.4861712240773595 0 0 0
57 0 2 0 0.6137965961835086 4.977030685309664 2.933812180943216 0 0 0
58 0 1 0 2.448706911812231 3.8191153592733 6.4602258614325425 0 0 0
59 0 2 0 2.0701925534169225 3.2377185725325823 5.750393441463495 0 0 0
60 0 2 0 3.146860816495048 3.230403034286745 6.742388302542654 0 0 0
61 0 1 0 8.412950601390543 6.954620429869423 1.7529409909876024 0 0 0
62 0 2 0 8.033076391758454 7.781053896699941 1.2751509197070345 0 0 0
63 0 2 0 7.669883230473964 6.8017557883710795 2.384288435240242 0 0 0
64 0 1 0 2.382928541457513 6.6973638168353204 8.32549129302801 0 0 0
65 0 2 0 2.769606541585917 7.243348602954058 9.012788337389974 0 0 0
66 0 2 0 3.1604283311134966 6.544835534212712 7.74183468107674 0 0 0
67 0 1 0 -2.115037901168289 0.22599713531554183 8.309306723668424 0 0 0
69 0 2 0 -2.3382247085947823 0.9134796867160616 8.93535212839694 0 0 0
70 0 1 0 3.659833354168971 0.30849957187345106 1.514266897871222 0 0 0
71 0 2 0 2.9419590895851524 0.7537479942422971 2.0741718148405996 0 0 0
72 0 2 0 4.323120393444542 22.588762427413503 2.053304077311349 0 -1 0
73 0 1 0 5.523373502889742 4.654237538100425 4.826863360595007 0 0 0
74 0 2 0 4.939662637920853 3.939681137865465 4.5334444768157915 0 0 0
75 0 2 0 5.65768601952021 5.193505122222079 4.032890157703917 0 0 0
76 0 1 0 0.8678107673945257 2.455865463549184 4.76467430705092 0 0 0
77 0 2 0 0.4025338567811032 2.0804092162434187 5.519705394738621 0 0 0
78 0 2 0 0.4439167141590479 3.363282454043049 4.55458023547255 0 0 0
79 0 1 0 0.4385194612800607 0.8754733842198904 19.350438253062826 0 0 -1
80 0 2 0 -0.0757346583335341 0.15538173058627158 18.96021178864582 0 0 -1
81 0 2 0 7.535696329437331 0.5758262156278025 0.6600668888610023 0 0 0
82 0 1 0 -4.027285121486801 6.2111011275790915 19.29290416557282 0 0 -1
83 0 2 0 -4.641805446127256 6.902383408629242 18.9639360160607 0 0 -1
84 0 2 0 -3.886494528467472 5.610974136127287 18.551181443733746 0 0 -1
86 0 2 0 16.37119953064791 1.3427281664996034 4.015095696895326 0 0 0
87 0 2 0 15.193111546477288 1.013070745642905 4.950019379025136 0 0 0
88 0 1 0 13.162855490020956 0.8498811314578912 4.92673219459264 0 0 0
89 0 2 0 12.718137589872093 -0.008242261206864873 4.717988279015326 0 0 0
90 0 2 0 12.894147965916078 1.1361005180206072 5.8218237840624045 0 0 0
91 0 1 0 8.831446633514428 6.552241927236884 5.08719708161919 0 0 0
92 0 2 0 8.1108754465854 7.244456513237541 5.06313195717732 0 0 0
93 0 2 0 8.603636496254264 5.931029952430725 4.3608501828623885 0 0 0
94 0 1 0 11.466573128368925 6.428665956482155 4.894310359031954 0 0 0
95 0 2 0 10.558053057851371 6.640800391907979 5.16511059759406 0 0 0
96 0 2 0 11.90056616647006 7.287136534871276 4.847989985346073 0 0 0
98 0 2 0 14.208395997734463 5.2448320149358745 8.756647983262425 0 0 0
100 0 1 0 14.717032629685622 4.731933518019328 0.3676431898872213 0 0 0
101 0 2 0 15.630298870984019 4.393983118161963 0.28081893601515107 0 0 0
102 0 2 0 8.109697892743739 5.305986782438602 19.022594583512785 0 0 -1
103 0 1 0 9.919294948539699 2.5452073345489294 0.4395566703726533 0 0 0
104 0 2 0 9.399189607112996 3.337850218087606 0.2644131752654798 0 0 0
105 0 2 0 10.840572683902076 2.8710844486425438 0.3622778269896693 0 0 0
106 0 1 0 9.761534241714811 2.2302100360356043 9.601891032352759 0 0 0
107 0 2 0 9.453991796368095 1.9842649415918039 8.694172672021551 0 0 0
108 0 2 0 10.00283407531418 1.4130631882442544 9.997384524405113 0 0 0
109 0 1 0 13.638312521829967 6.4986984909041325 7.445669172444237 0 0 0
110 0 2 0 13.679908617189287 6.16725046542972 6.56284301028558 0 0 0
111 0 2 0 12.654294741932983 6.503730026971381 7.583556680001047 0 0 0
112 0 1 0 14.775183014826503 6.50126372620399 2.398113776873519 0 0 0
113 0 2 0 14.652204272437748 6.1720895970968 3.235415036208139 0 0 0
114 0 2 0 14.655689658859798 5.774206366053663 1.7482793459171648 0 0 0
115 0 1 0 9.959612819242897 0.7993664344032186 2.883099856262464 0 0 0
116 0 2 0 10.850115623279418 0.6043191873844177 2.6572658134165144 0 0 0
117 0 2 0 9.777882261196801 1.468409192975123 2.1838506340154593 0 0 0
118 0 1 0 9.147866958967535 0.7861657603233861 7.356293274686802 0 0 0
119 0 2 0 9.420524064298803 1.2207069196749234 6.523320500936439 0 0 0
120 0 2 0 9.831215781908213 0.18690235504602135 7.596691624518755 0 0 0
121 0 1 0 16.360630480602556 2.800816490995965 2.33838126481467 0 0 0
122 0 2 0 16.434497489529356 2.3194186487316886 1.4111929706978705 0 0 0
123 0 2 0 15.447909372277346 3.1328737993211466 2.3006756733524796 0 0 0
124 0 1 0 13.27572511813224 2.353832474765194 7.252766804601194 0 0 0
125 0 2 0 12.77163141979019 3.1431043469972786 7.08884816681434 0 0 0
126 0 2 0 14.16842304957747 2.6937996786357488 7.197791878010347 0 0 0
127 0 1 0 8.91661110053042 4.971067531874806 7.4829504140472185 0 0 0
128 0 2 0 8.96566734444108 5.638692317803617 6.750509440440927 0 0 0
129 0 2 0 8.148323840273143 4.437730463934094 7.26452589903705 0 0 0
130 0 1 0 10.96221089005201 4.975605078573757 2.5335459080685983 0 0 0
131 0 2 0 10.034119297797867 4.61287418479634 2.6829150744797494 0 0 0
132 0 2 0 11.039996996357058 5.534614511585189 3.324211232543312 0 0 0
135 0 2 0 -1.4040327989692853 3.6085301315062748 7.063544328180698 1 0 0
136 0 1 0 13.195883163051729 3.2372516046028736 3.407082246675284 0 0 0
137 0 2 0 12.372304875295303 3.399747252880124 2.8441972896117558 0 0 0
138 0 2 0 13.129810000257395 2.3513357532282693 3.814475604756099 0 0 0
139 0 1 0 8.50256426040934 4.099774012519253 3.3725815958201375 0 0 0
140 0 2 0 7.809211228697036 3.6532188931053984 2.887166317822628 0 0 0
141 0 2 0 8.828941168013845 3.4106650433935486 3.9716494152993076 0 0 0
142 0 1 0 11.241115894456623 3.9778820595569266 6.186059628089127 0 0 0
143 0 2 0 11.533465203457848 4.765812434833295 5.659940329388858 0 0 0
144 0 2 0 10.563937950131363 4.372113089005502 6.723693355790425 0 0 0
148 0 1 0 11.102955481699647 6.930160407764608 8.196120827006801 0 0 0
149 0 2 0 10.62457701186787 6.151134993256303 8.336037717977584 0 0 0
150 0 2 0 10.418237071755534 7.574001670478428 7.862172510335695 0 0 0
151 0 1 0 6.655629447040253 0.3810374084046596 8.89145297769927 0 0 0
152 0 2 0 7.427283785232728 0.5185699257207588 8.264912903678594 0 0 0
153 0 2 0 6.384577748610955 1.255937625026894 9.160389628924033 0 0 0
154 0 1 0 12.555941339904368 0.5707935382709144 1.8119705717160508 0 0 0
155 0 2 0 12.958496989927905 1.3484548885155632 1.3483404380665092 0 0 0
156 0 2 0 12.215155853515485 -0.07172764629019127 1.163587044506381 0 0 0
157 0 1 0 14.500706354273836 5.238725933896096 4.9375272738907405 0 0 0
158 0 2 0 13.911866465127293 4.653283142357969 4.4609517823852505 0 0 0
159 0 2 0 14.873172815875087 4.606591651733381 5.573845512769971 0 0 0
160 0 1 0 9.74356191568752 2.193171705929809 4.925151028317015 0 0 0
161 0 2 0 10.514368664013867 2.72246187823639 5.315512316310888 0 0 0
162 0 2 0 10.1247897828847 1.5999295781225416 4.284818102289006 0 0 0
163 0 1 0 9.76690677951932 1.5639403206316351 19.34987999534748 0 0 -1
164 0 2 0 10.008410012807934 1.8478252626982057 18.445860019538287 0 0 -1
165 0 2 0 9.08915360374586 0.8274702474502842 19.260713820038113 0 0 -1
166 0 1 0 11.499613199326527 6.195099934402441 0.20071496785142703 0 0 0
167 0 2 0 11.26516739191191 5.8001116833305515 1.0502939537573521 0 0 0
168 0 2 0 4.173221520965688 6.514874776105901 19.34261923461395 0 0 -1
169 0 1 0 6.888806324524276 8.529559122029868 4.638518469029603 0 0 0
170 0 2 0 5.945385944796785 8.401085923509287 4.927889102487326 0 0 0
171 0 2 0 7.172480477308663 9.288068734173144 5.185139821820984 0 0 0
172 0 1 0 4.211516052988726 8.480177400918384 5.068101015400954 0 0 0
173 0 2 0 3.671250911891897 7.676279051654147 4.92230870270329 0 0 0
174 0 2 0 3.8164683207690566 9.12245913341379 4.4107920946751085 0 0 0
175 0 1 0 -0.19340203579240023 13.95136775561366 4.968877809140327 0 0 0
176 0 2 0 -0.7984408273572778 14.709961022003988 4.961882273239963 0 0 0
177 0 2 0 0.6073251182949713 14.10238955152611 4.49890939394819 0 0 0
178 0 1 0 2.4575028094959177 13.959195711895259 4.5629820815834305 0 0 0
179 0 2 0 2.6443774569848806 13.270813131361322 5.28662254501661 0 0 0
180 0 2 0 2.6471975537068486 13.520654528562108 3.744208767533528 0 0 0
181 0 1 0 4.938351555012188 12.377341744830924 9.692889281750643 0 0 0
182 0 2 0 5.172280828747901 13.15320581845005 10.272603969279903 0 0 0
183 0 2 0 5.646583220882687 11.691240582926287 9.842373185767988 0 0 0
184 0 1 0 5.410718247966558 12.118710883405075 0.19549666628561105 0 0 0
185 0 2 0 -1.5057882154599467 12.759241334230786 19.25872399026649 0 0 -1
186 0 2 0 -0.1565583854989212 12.058344492963467 19.218052419105277 0 0 -1
187 0 1 0 -5.764158409780368 10.068298746024785 19.349751590188866 0 0 -1
188 0 2 0 0.9159089476364404 9.729922366061317 0.8080898337560539 0 0 0
189 0 2 0 -4.859070615333867 10.316560859790961 19.137500523712056 0 0 -1
190 0 1 0 0.47732166971541945 9.953682277412737 9.80158571758087 0 0 0
191 0 2 0 0.8025066004522494 9.456864463938928 9.093723388916654 0 0 0
192 0 2 0 1.0355399210075351 10.68884639304929 10.030341952436851 0 0 0
193 0 1 0 4.963711662040101 13.920604552606644 7.263407573756637 0 0 0
194 0 2 0 5.13975337046457 13.506915613891117 6.419123595983012 0 0 0
195 0 2 0 5.050830486165809 13.23182967880532 7.9478020856145655 0 0 0
196 0 1 0 6.08133405555698 13.765892191940075 2.3809122289355824 0 0 0
197 0 2 0 5.717605287334686 13.083344110479574 1.8069701910731615 0 0 0
198 0 2 0 5.89917354101857 13.4482223621813 3.27953878628144 0 0 0
199 0 1 0 1.391895211655378 8.569876519002458 2.341918998145554 0 0 0
200 0 2 0 0.726263782783932 7.918488384684889 2.0247836007763276 0 0 0
201 0 2 0 2.258554577789545 8.279657807724934 1.9432773104229724 0 0 0
202 0 1 0 0.6907826730689259 8.71805460202836 7.199954180959504 0 0 0
203 0 2 0 -0.26107773719516647 8.436263879493865 7.275119741157081 0 0 0
204 0 2 0 1.1668308914390764 7.907236330789783 7.5362053979976595 0 0 0
205 0 1 0 6.579214692211093 10.281513042601278 2.5472790048825718 0 0 0
206 0 2 0 6.671586857700927 9.624278745544284 3.267158717705631 0 0 0
207 0 2 0 7.287435404981595 10.893205010689211 2.6870438602883007 0 0 0
208 0 1 0 4.441371010529902 9.91701355942258 7.4716120350587 0 0 0
209 0 2 0 3.941046351451451 10.683234788260249 7.15470899632439 0 0 0
210 0 2 0 4.254858423163835 9.360704360025807 6.639441275355207 0 0 0
211 0 1 0 -0.12033397944508684 12.403052198322653 6.952655891956328 0 0 0
212 0 2 0 -0.23425929171929472 12.759920954186951 7.882267705811677 0 0 0
213 0 2 0 -0.10558954408932442 13.157471489826095 6.338462514012763 0 0 0
214 0 1 0 1.8170606025487832 12.398502066592314 2.4747681826907866 0 0 0
215 0 2 0 1.9342150617628002 12.876083893726502 1.6256404951355106 0 0 0
216 0 2 0 0.9522047911469811 12.023061284891538 2.508614636747911 0 0 0
217 0 1 0 6.793249007384175 10.699654063420425 6.291845898964107 0 0 0
218 0 2 0 5.989269079118499 10.584935625969884 6.815132926226638 0 0 0
219 0 2 0 7.296531582883885 11.441216184170372 6.664512518869846 0 0 0
220 0 1 0 3.9252543717158157 10.767076134550665 3.3409762011155197 0 0 0
221 0 2 0 4.726518752186449 10.78193118586123 2.7487256482436173 0 0 0
222 0 2 0 3.160983612749767 11.09258145334204 2.8901589070291136 0 0 0
223 0 1 0 -0.7876585965419002 11.646711456242747 3.584491388314717 0 0 0
224 0 2 0 -0.35262570328401854 10.95922792425437 4.177731836684675 0 0 0
225 0 2 0 -1.044071577724067 12.33708732070497 4.204155678666788 0 0 0
226 0 1 0 2.440968053865937 11.770584435417046 6.445988217854056 0 0 0
227 0 2 0 1.5962759779997584 12.04064832233976 6.902903030518714 0 0 0
228 0 2 0 2.0681698883158512 11.108638865993358 5.855173933767359 0 0 0
229 0 1 0 8.401274765535788 14.896560732709652 1.526481605564054 0 0 0
230 0 2 0 7.669665109309374 14.570577310660054 2.0930162054032384 0 0 0
231 0 2 0 8.980411883882445 15.507045662514544 2.026677172421822 0 0 0
232 0 1 0 2.2591433525267557 14.387397475080865 8.334953754773947 0 0 0
233 0 2 0 3.105760205426066 14.170050965215232 7.915785831759334 0 0 0
234 0 2 0 1.7144781157629008 14.899946361166062 7.727034753400585 0 0 0
235 0 1 0 -2.0581561903303736 7.912778202173184 8.122923454756405 0 0 0
237 0 2 0 -2.137178220928638 8.707572077414117 8.714076360528656 0 0 0
238 0 1 0 4.039769825951097 8.076018911972781 1.4268196949932075 0 0 0
239 0 2 0 4.089366112119343 8.898954615384689 0.9241213385312036 0 0 0
240 0 2 0 3.702913644090739 7.415975150613093 0.7828010122402143 0 0 0
241 0 1 0 5.277891359217514 12.608820643901986 4.726797994884184 0 0 0
242 0 2 0 5.797820405190096 11.97223428749852 5.235916312066596 0 0 0
243 0 2 0 4.575569160318972 12.054712969168769 4.2911881424323 0 0 0
244 0 1 0 1.1207735896207143 9.734088639578212 4.654994945535482 0 0 0
245 0 2 0 1.3183088144973278 9.081933496400891 3.9459708307007557 0 0 0
246 0 2 0 0.8944892038835439 9.242966687260399 5.445285380864514 0 0 0
247 0 1 0 6.806608664307886 9.089743756175961 0.37431229910795427 0 0 0
248 0 2 0 6.596440165755919 9.541568158195583 1.1963927609311393 0 0 0
249 0 2 0 6.097571540512714 8.432108454863048 0.22035363645811976 0 0 0
250 0 1 0 2.424955221555934 14.179471722797036 0.3284050888573464 0 0 0
251 0 2 0 -4.737221506141263 14.579541396942838 19.215541289875638 0 0 -1
252 0 2 0 2.9848739387243017 14.678119710940999 0.9305988067150347 0 0 0
256 0 1 0 13.088352991356139 8.768479255027858 4.925132259127887 0 0 0
257 0 2 0 13.942891717199341 8.506523181255885 4.524044232737821 0 0 0
258 0 2 0 13.27003992963215 9.182422652161872 5.805514254098831 0 0 0
259 0 1 0 8.59594311303801 14.13321072405302 4.892258866616255 0 0 0
260 0 2 0 9.561604078522656 14.20074848970175 4.746479633117007 0 0 0
261 0 2 0 8.29189036739144 13.361951432123698 4.395323443293721 0 0 0
262 0 1 0 11.355914688456691 13.662115784639948 4.696924180363581 0 0 0
263 0 2 0 11.563717614083782 13.209710255282653 3.8922939338673035 0 0 0
264 0 2 0 11.912228478865803 14.43024218596532 4.817533325373279 0 0 0
267 0 2 0 14.207426905245098 12.653132851531284 8.478110110907469 0 0 0
268 0 1 0 14.647374917177427 12.279255293124493 0.14361931609258105 0 0 0
269 0 2 0 14.576270731295345 12.708959293116918 1.002925689643826 0 0 0
270 0 2 0 14.10402763157846 11.470195116325323 0.13798950882018315 0 0 0
271 0 1 0 9.796795151771775 10.332604231203476 0.30552853622274423 0 0 0
272 0 2 0 4.1345809353392085 10.075790457257327 19.19643640349883 0 0 -1
273 0 2 0 9.919784301921522 10.102006487348651 1.2302672168709667 0 0 0
274 0 1 0 9.352402776040847 10.608293871439248 9.973964292885851 0 0 0
275 0 2 0 10.23143059496133 11.076415928581167 10.01804637392132 0 0 0
276 0 2 0 9.396747186854906 10.188066458953037 9.125727513376747 0 0 0
277 0 1 0 13.987911463141415 14.135833551279804 7.15685764504253 0 0 0
278 0 2 0 14.5625539726885 14.512290836322117 7.838298602950144 0 0 0
279 0 2 0 13.057726359427429 14.113843429079465 7.4440240173694425 0 0 0
280 0 1 0 14.980539274790335 14.199508341462916 2.23368513078989 0 0 0
281 0 2 0 14.885669453227777 13.897710870858566 3.1682588005661287 0 0 0
282 0 2 0 15.88975382917149 14.51008781114686 2.168588748115521 0 0 0
283 0 1 0 10.149730721927357 8.955704991578566 2.7205634830202894 0 0 0
284 0 2 0 9.689403617032857 8.100683208586982 2.538618184699689 0 0 0
285 0 2 0 11.07794500122077 8.736386077409493 2.565110154253085 0 0 0
286 0 1 0 9.155258270897484 8.812850486350808 7.608498635160877 0 0 0
287 0 2 0 8.294748350320788 8.406521188180845 7.817645305604476 0 0 0
288 0 2 0 9.130786653325131 9.211541276637249 6.724931976656348 0 0 0
289 0 1 0 15.352603638678586 9.906753057370986 2.5293820908782987 0 0 0
290 0 2 0 16.06504533877922 10.561754758424751 2.699012994741867 0 0 0
291 0 2 0 14.551106313984564 10.4773663147548 2.7135142312899996 0 0 0
292 0 1 0 13.40903804736569 10.044319314184463 7.083845063261967 0 0 0
293 0 2 0 14.248550639037404 10.500890398919564 7.054488216928533 0 0 0
294 0 2 0 13.338971651284666 9.527362105891164 7.934944800056207 0 0 0
295 0 1 0 8.674832123182224 12.622870528938835 7.457464201124337 0 0 0
296 0 2 0 8.700016325400199 13.248760459991493 6.72621242274704 0 0 0
297 0 2 0 9.582364992128362 12.26802246932225 7.418797202204735 0 0 0
298 0 1 0 11.100004726635083 12.219644636629047 2.3887589519294288 0 0 0
299 0 2 0 11.161499610491195 12.571261152937721 1.4457042647575644 0 0 0
300 0 2 0 11.903580555445373 11.670466233022353 2.5345080957189654 0 0 0
303 0 2 0 -1.190131931688441 11.279390404319239 6.747751835217352 1 0 0
304 0 1 0 13.143741797271808 11.228055974139224 3.5667360209848877 0 0 0
305 0 2 0 13.223445398249726 10.31981330292679 3.988280987779518 0 0 0
306 0 2 0 13.632596300945941 11.857708922959297 4.083086194414072 0 0 0
307 0 1 0 8.618915574369808 11.859692942642926 3.4795005322717256 0 0 0
308 0 2 0 9.478560303460366 12.166508818393119 3.1443800211382644 0 0 0
309 0 2 0 8.859310448818048 11.186768994882877 4.177436235252529 0 0 0
310 0 1 0 11.32602168271692 11.94726529970878 6.69990617685174 0 0 0
311 0 2 0 11.993619836154812 11.212337071315297 6.858548471245795 0 0 0
312 0 2 0 11.650546228882323 12.581841766746031 6.015475371334965 0 0 0
314 0 2 0 0.22014621453915717 15.276196921106296 1.8451470425586363 1 0 0
316 0 1 0 11.450286506721572 14.321244642593944 8.00136632035358 0 0 0
317 0 2 0 11.362191978975126 13.563083133947709 8.643701899860947 0 0 0
318 0 2 0 11.809013264263196 15.022435301453974 8.534854868650301 0 0 0
319 0 1 0 6.620034511750124 8.096332983329399 8.532514205968836 0 0 0
320 0 2 0 7.098991709791363 7.4203967403008875 9.132914665980786 0 0 0
321 0 2 0 6.134648094016812 7.5581982999124 7.868598573611558 0 0 0
322 0 1 0 12.691749993015543 8.18643075587105 1.7973800970246605 0 0 0
323 0 2 0 12.36855864132023 7.509679949803324 1.1991228709935606 0 0 0
324 0 2 0 13.58509795075422 7.885476215819651 2.070607115326096 0 0 0
325 0 1 0 14.797487341879906 12.620835013255354 5.113853022442681 0 0 0
326 0 2 0 15.294562660583146 11.845300543860692 5.579046798921849 0 0 0
327 0 2 0 14.78977631330511 13.321391959597234 5.80519926369867 0 0 0
328 0 1 0 9.767523924566229 9.993528332325328 5.16914223139224 0 0 0
329 0 2 0 10.007269870916463 9.678596873661817 4.315107930595409 0 0 0
330 0 2 0 10.48747354883268 10.610677948404982 5.456773624772216 0 0 0
331 0 1 0 9.321179189265319 8.750850845775584 19.219759650551545 0 0 -1
332 0 2 0 15.652855906359433 9.461100964717302 0.7045083486434229 0 0 0
333 0 2 0 9.786913038930244 9.21485255851376 18.503964061498706 0 0 -1
334 0 1 0 11.715935054478486 13.722405554506503 0.1812800665108948 0 0 0
335 0 2 0 5.5315719061966835 12.909512817966641 18.869119192360643 0 0 -1
336 0 2 0 4.430283641041377 13.98127479248372 19.100482468770643 0 0 -1
337 0 1 0 6.813860658744694 16.177374821967295 4.55471515170315 0 0 0
338 0 2 0 7.535129450026823 15.486894006641844 4.525778711833413 0 0 0
339 0 2 0 6.89802655903879 16.752466100906506 3.793955990079887 0 0 0
340 0 1 0 4.015019507091485 15.972122229184368 4.947121229035657 0 0 0
341 0 2 0 3.3831730805543136 15.223188796709396 4.8936988737193 0 0 0
342 0 2 0 4.938725234801722 15.755629110847645 4.632237181815036 0 0 0
343 0 1 0 -0.3909667713709888 21.4328408504358 5.172508678077135 0 0 0
344 0 2 0 -0.4958907874687075 20.82558231225594 5.975072082975859 0 0 0
346 0 1 0 2.362726340546063 21.81177686976925 4.543892476615253 0 0 0
347 0 2 0 2.7049019144278614 21.122014708725505 5.138365307987601 0 0 0
348 0 2 0 1.4987899619138794 21.880084736889017 4.994294085473565 0 0 0
349 0 1 0 5.124179503135826 19.87445606618986 9.317760827542608 0 0 0
350 0 2 0 5.478317131178173 20.478167321408584 9.992204043655137 0 0 0
351 0 2 0 5.089307205874647 20.41561412403461 8.512590179719602 0 0 0
352 0 1 0 5.27278147290759 19.94784317201282 0.3770992312002227 0 0 0
353 0 2 0 4.614008971952048 19.219891581804713 0.3305814146942764 0 0 0
354 0 2 0 5.280527104280925 20.345152729106232 1.2559316370974971 0 0 0
355 0 1 0 1.0383513407408549 17.951113670927537 0.25135103752617227 0 0 0
356 0 2 0 1.1824851084077141 17.63212736286607 1.1560169503955167 0 0 0
357 0 2 0 -5.630256945747059 16.927800510614357 19.13099781365616 0 0 -1
358 0 1 0 0.7573215268685329 17.65596203438237 9.488661955981676 0 0 0
359 0 2 0 0.8095239144693509 16.945637070042277 10.115819949087621 0 0 0
360 0 2 0 1.613622742928301 18.15622198332099 9.538820607387896 0 0 0
361 0 1 0 4.53668614204801 21.74120075910482 7.486148980071736 0 0 0
362 0 2 0 5.241659792396126 22.355755407349708 7.760581594647941 0 0 0
363 0 2 0 3.6645748239869667 22.14419210624245 7.748094998588805 0 0 0
364 0 1 0 5.484192605924017 21.29672427551089 2.8400846276129545 0 0 0
365 0 2 0 6.3911585713367804 21.728945750361444 2.7940315614539366 0 0 0
366 0 2 0 5.401890465554742 20.898153070960063 3.7532260909754442 0 0 0
367 0 1 0 1.339657543335095 16.450446678360173 2.524005330224132 0 0 0
368 0 2 0 2.2747170923141273 16.236995087303075 2.5388634212151615 0 0 0
369 0 2 0 1.2305050667850126 16.771966503274236 3.431737735679005 0 0 0
370 0 1 0 0.5116819622476494 16.13997951104866 7.1623437460358375 0 0 0
371 0 2 0 0.7137712919732482 16.767565485607218 7.847443671599242 0 0 0
372 0 2 0 0.5926880260749523 16.64564536254923 6.333591142356521 0 0 0
373 0 1 0 6.415460861901265 17.987269613741255 2.388946701470892 0 0 0
374 0 2 0 6.484795580993148 17.55239539596964 1.5020958737191408 0 0 0
375 0 2 0 5.462406383799471 18.065195808126067 2.511047820691432 0 0 0
376 0 1 0 4.119066868006383 17.50094219477604 7.110971413291285 0 0 0
377 0 2 0 3.866229808926068 16.926657769933552 6.370280041498843 0 0 0
378 0 2 0 5.051452199083572 17.725279849849535 6.957986260807203 0 0 0
379 0 1 0 -0.2543587232934579 19.69273929576123 7.402533793832189 0 0 0
380 0 2 0 -1.1405230508418227 19.290001927562393 7.259509292893578 0 0 0
381 0 2 0 -0.3472279830927052 20.17066461755996 8.25086574695628 0 0 0
382 0 1 0 1.783932378819995 20.066196863063897 2.5974696764390357 0 0 0
383 0 2 0 2.3966987296775017 19.394790336736705 2.9169465914166266 0 0 0
384 0 2 0 1.971930503415765 20.880038095948255 3.052980735577177 0 0 0
385 0 1 0 6.607292810019013 18.23268169636369 6.410668877294248 0 0 0
386 0 2 0 7.4589869450497615 18.579378265638685 6.669613084758924 0 0 0
387 0 2 0 6.7826860369412545 17.469793280972816 5.828438341939197 0 0 0
388 0 1 0 3.738844294737602 18.529585364548034 3.6519916805465846 0 0 0
389 0 2 0 3.5652187118804592 17.672511984580208 4.155772357583353 0 0 0
390 0 2 0 4.187572341889491 19.164510293342566 4.234462658966324 0 0 0
392 0 2 0 0.017288534024003654 19.485334978452418 3.06906743822048 0 0 0
393 0 2 0 16.906533320917156 19.84322246839072 4.0077031030730765 -1 0 0
394 0 1 0 2.192570918297023 19.351698854282024 6.485706459295471 0 0 0
395 0 2 0 1.31640554844275 19.42082678458272 6.85944743039765 0 0 0
396 0 2 0 2.7683791122333186 18.735941594449027 6.879482607956352 0 0 0
397 0 1 0 7.946570270662013 22.242289136387175 2.0619772747497143 0 0 0
398 0 2 0 8.261539870778547 21.49799574120641 1.5428596064288944 0 0 0
399 0 2 0 8.673002704588031 22.688723919171277 2.4915220366772575 0 0 0
400 0 1 0 2.1992135213177746 -0.11993389619633363 8.256494032757187 0 1 0
401 0 2 0 2.520876541026423 0.5712706308204604 8.854175876039761 0 1 0
402 0 2 0 1.5263802754784597 0.4170610258604174 7.732942458105261 0 1 0
404 0 2 0 -1.1835135967971417 15.535018314612362 7.7239913608041135 0 0 0
405 0 2 0 -2.073270775519532 16.209316644862753 8.832537566397667 0 0 0
406 0 1 0 3.9726875344693435 15.61165952924944 1.8491975130112066 0 0 0
407 0 2 0 4.796480219149302 15.21227545294448 2.1059331536255037 0 0 0
408 0 2 0 4.108674333997035 16.38311688516876 1.219001252529084 0 0 0
409 0 1 0 5.195540783502928 20.191418073134546 5.184293277024016 0 0 0
410 0 2 0 5.793414374765317 19.47941398991721 5.651791065151513 0 0 0
411 0 2 0 4.989515878568213 20.7509099045185 5.943122447153252 0 0 0
412 0 1 0 0.7918391208532956 17.582592109233694 4.918894538732177 0 0 0
413 0 2 0 1.2811882228805547 18.354434076078423 5.255989784384904 0 0 0
414 0 2 0 -0.004702285868422251 17.958713850540672 4.57987520765883 0 0 0
415 0 1 0 0.218044750603557 16.436617481067614 19.197998660373507 0 0 -1
416 0 2 0 7.469049050707857 16.13870363541712 0.27235654945211496 0 0 0
417 0 2 0 0.5356437753895014 16.896463856550202 18.3544906303945 0 0 -1
418 0 1 0 -4.124868466546006 21.187352809297327 19.371050375958532 0 0 -1
419 0 2 0 2.1202420677958473 20.691062400744404 0.73870452808444 0 0 0
420 0 2 0 3.0501727203814184 21.908861265587834 0.416029028204464 0 0 0
423 0 2 0 15.350965246636783 16.032431401102592 3.8934920823156656 0 0 0
424 0 1 0 12.848197438496122 16.027631633492458 5.077894364693897 0 0 0
425 0 2 0 13.754555611525673 15.805820242580218 4.867177903427097 0 0 0
426 0 2 0 12.656743853798346 16.797267621895763 4.442142081789814 0 0 0
427 0 1 0 8.596121255820517 21.821560284983352 5.2525062476696736 0 0 0
428 0 2 0 8.143052465231602 -0.1341669340344092 5.303959552189781 0 1 0
429 0 2 0 8.16041287093404 21.378753302684604 4.457466444429138 0 0 0
430 0 1 0 11.348412758381093 21.781748524505964 4.869495421115629 0 0 0
431 0 2 0 11.190694796343173 21.286258300922416 4.013245815978147 0 0 0
432 0 2 0 10.402437395897504 21.921820259986024 5.18922537610991 0 0 0
435 0 2 0 13.350944542467838 19.635816673720928 9.496381555023797 0 0 0
436 0 1 0 14.528080410884497 20.106886656534442 0.23497651592231583 0 0 0
437 0 2 0 15.428787559659213 19.736670829904288 0.1364812887070194 0 0 0
438 0 2 0 7.3193321769298505 19.444219514711584 19.21743287507526 0 0 -1
439 0 1 0 9.822552922940982 17.927264533151526 0.250485978232158 0 0 0
440 0 2 0 10.737932946770544 18.192111379143928 0.11209231798264471 0 0 0
441 0 2 0 9.822500632760931 17.399505676644758 1.0775044074122224 0 0 0
442 0 1 0 9.568456028891244 17.92945557563133 9.616024120036172 0 0 0
443 0 2 0 8.631660640682034 18.114068879502604 9.87227815585635 0 0 0