LAMMPS (29 Sep 2021 - Update 2)
  using 1 OpenMP thread(s) per MPI task
echo both

include		in.partitions
variable        pid world 0
include		in.temp
variable        temperature equal 260
variable        tempDamp equal 0.100 # this is 0.1 ps
include		in.pressure
variable        pressure equal 5066.25
variable        pressureDamp equal 1.0 #this is 1ps
include		in.seed
variable        seed world 745823

units           metal
atom_style	full
include		in.box
read_data       iceV.data
Reading data file ...
  triclinic box = (0.0000000 0.0000000 0.0000000) to (18.399555 22.570389 19.505716) with tilt (0.0000000 -6.7926110 0.0000000)
  1 by 1 by 1 MPI processor grid
  reading atoms ...
  1008 atoms
Finding 1-2 1-3 1-4 neighbors ...
  special bond factors lj:    0        0        0       
  special bond factors coul:  0        0        0       
     0 = max # of 1-2 neighbors
     0 = max # of 1-3 neighbors
     0 = max # of 1-4 neighbors
     1 = max # of special neighbors
  special bonds CPU = 0.003 seconds
  read_data CPU = 0.015 seconds
include 	in.setup
variable	out_freq equal 500
variable	out_freq2 equal 500

timestep        0.0005

neigh_modify    delay 7 every 1

include         in.deepmd
# This is deepMD model

# create groups ###
#group ox type 2
#group hy type 1

mass 2 15.999
mass 1 1.008

pair_style      deepmd ../graph.pb
pair_coeff      * *

bond_style      none
angle_style     none
dihedral_style  none
improper_style  none
neigh_modify exclude none


neighbor        2.0 bin
neigh_modify    every 10 delay 0 check no

thermo          ${out_freq}
thermo          500
thermo_style 	custom step temp pe etotal epair emol press lx ly lz xy xz yz vol pxx pyy pzz pxy pxz pyz

restart 	${out_freq} restart.lmp.${pid} restart2.lmp.${pid}
restart 	500 restart.lmp.${pid} restart2.lmp.${pid}
restart 	500 restart.lmp.0 restart2.lmp.${pid}
restart 	500 restart.lmp.0 restart2.lmp.0


include         in.dump
dump            myDump all atom ${out_freq2} dump.water.${pid}
dump            myDump all atom 500 dump.water.${pid}
dump            myDump all atom 500 dump.water.0
dump            myDump2 all dcd ${out_freq2} dump.dcd
dump            myDump2 all dcd 500 dump.dcd
dump_modify     myDump append yes
dump_modify     myDump2 append yes


timer           timeout 03:55:00 every 1000
New timer settings: style=normal  mode=nosync  timeout=03:55:00

fix             2 all nph tri ${pressure} ${pressure} ${pressureDamp}
fix             2 all nph tri 5066.25 ${pressure} ${pressureDamp}
fix             2 all nph tri 5066.25 5066.25 ${pressureDamp}
fix             2 all nph tri 5066.25 5066.25 1
fix             3 all temp/csvr ${temperature} ${temperature} ${tempDamp} ${seed}
fix             3 all temp/csvr 260 ${temperature} ${tempDamp} ${seed}
fix             3 all temp/csvr 260 260 ${tempDamp} ${seed}
fix             3 all temp/csvr 260 260 0.1 ${seed}
fix             3 all temp/csvr 260 260 0.1 745823
velocity 	all create ${temperature} ${seed} dist gaussian
velocity 	all create 260 ${seed} dist gaussian
velocity 	all create 260 745823 dist gaussian

run             400000

CITE-CITE-CITE-CITE-CITE-CITE-CITE-CITE-CITE-CITE-CITE-CITE-CITE

Your simulation uses code contributions which should be cited:

- USER-DEEPMD package:

@article{Wang_ComputPhysCommun_2018_v228_p178,
  author = {Wang, Han and Zhang, Linfeng and Han, Jiequn and E, Weinan},
  doi = {10.1016/j.cpc.2018.03.016},
  url = {https://doi.org/10.1016/j.cpc.2018.03.016},
  year = 2018,
  month = {jul},
  publisher = {Elsevier {BV}},
  volume = 228,
  journal = {Comput. Phys. Commun.},
  title = {{DeePMD-kit: A deep learning package for many-body potential energy representation and molecular dynamics}},
  pages = {178--184}
}

CITE-CITE-CITE-CITE-CITE-CITE-CITE-CITE-CITE-CITE-CITE-CITE-CITE

Neighbor list info ...
  update every 10 steps, delay 0 steps, check no
  max neighbors/atom: 2000, page size: 100000
  master list distance cutoff = 8
  ghost atom cutoff = 8
  binsize = 4, bins = 7 6 5
  1 neighbor lists, perpetual/occasional/extra = 1 0 0
  (1) pair deepmd, perpetual
      attributes: full, newton on
      pair build: full/bin
      stencil: full/bin/3d
      bin: standard
Per MPI rank memory allocation (min/avg/max) = 7.699 | 7.699 | 7.699 Mbytes
Step Temp PotEng TotEng E_pair E_mol Press Lx Ly Lz Xy Xz Yz Volume Pxx Pyy Pzz Pxy Pxz Pyz 
       0          260   -178.42725   -144.58436   -178.42725            0    36074.613    18.399555    22.570389    19.505716            0    -6.792611            0    8100.4335    35605.887    36855.564    35762.387   -447.06712    1251.1798    365.72257 
     500     257.3004   -165.20852   -131.71702   -165.20852            0    10058.605    18.085532    22.302545    19.326327 -0.029600875   -6.7751295 -0.0092334485    7795.3397    9154.6988    10318.206    10702.911   -2461.8691    57.505844   -330.34867 
    1000    260.04046   -164.19758   -130.34943   -164.19758            0     5861.764    18.089378    22.677489    19.552863 -0.027526411   -6.8958494  0.012784965    8021.0079    6455.0498    7064.3615    4065.8807    2350.5744    263.49986   -1489.2984 
    1500    254.14158   -164.41273    -131.3324   -164.41273            0    17776.022    18.074647    22.765028    19.431811 -0.014461373   -6.9592866 -0.003722126    7995.6044    20876.395     15229.08    17222.591   -785.59465     3841.168    1911.0978 
    2000    255.59936   -162.36817   -129.09809   -162.36817            0   -486.74622    18.071951    22.704985    19.314618 0.0053115679    -6.979225 -0.042627871    7925.2396    2264.1758    429.63936   -4154.0538   -364.44371   -28.361628    546.00238 
    2500    265.14262    -162.9875   -128.47522    -162.9875            0    6380.3471    18.204762    22.877451    19.387607 -0.012541023   -7.0292214  -0.06935368    8074.5224    4744.8992    5419.8373    8976.3048    858.03879    75.512907   -351.51691 
    3000    270.46531   -162.97898   -127.77387   -162.97898            0    11101.868     18.05801    22.631858    19.254581 -0.021307955   -6.9831517 -0.012856671    7869.0838    12279.597    9957.7386    11068.267    188.91707    666.34196    145.10356 
    3500    259.35579   -164.05351   -130.29448   -164.05351            0   -1132.5896    18.167424    22.696988    19.421939 -0.041467572   -7.0291059  0.097325827    8008.5552    710.40697    72.117159    -4180.293    1484.4911   -842.98552   -2681.2882 
    4000    249.58842   -162.99236   -130.50469   -162.99236            0    4189.2039    18.157341    22.713408    19.468856 -0.052408092   -6.9720366   0.12055239    8029.2505    2487.4506    4507.1103    5573.0507   -1.0501902   -790.93289    2456.0661 
    4500    263.41455   -164.62444   -130.33709   -164.62444            0    5521.6261    18.008153    22.580235    19.334176 -0.052386907   -6.8599892  0.074468709    7861.8233     6258.851    3560.9461    6745.0811   -1299.3079   -84.035498   -1552.8039 
    5000    250.25677   -162.54577    -129.9711   -162.54577            0    583.77431    18.205582    22.795382    19.477598 -0.079892524   -6.8907585 -0.030104096    8083.2657    430.57226    1212.9373    107.81334     9.178278   -3345.4841   -1325.4964 
    5500     248.5969    -163.0119    -130.6533    -163.0119            0     7343.039    18.045374    22.661992    19.272935 -0.056204428   -6.8340545 -0.065138673    7881.5536    8872.5188    3448.8971    9707.7011    290.34676    1020.2029    3139.3537 
    6000     253.9212   -162.77581   -129.72417   -162.77581            0    3291.5563     18.13824    22.701241    19.329835  0.042221621   -6.9419461  0.022604462    7959.2634    2473.2138    5086.7109    2314.7443   -1784.3018   -1340.1512    1161.6915 
    6500    257.66024   -164.11551   -130.57718   -164.11551            0    760.94535    18.137839    22.847996    19.399331   0.16932957   -7.0412973   0.21198478    8039.3403   -107.47708    1225.8465    1164.4666   -1527.0532    1356.2505   -3102.3023 
    7000    263.68885    -162.3513   -128.02824    -162.3513            0    6231.2479      18.0531    22.580691    19.372775   0.16951661   -7.1106417   0.27458495    7897.3401     3559.625    7525.4737    7608.6451   -1011.2241    741.98704    1295.4045 
    7500    262.38611   -163.16879   -129.01531   -163.16879            0    118.29171    18.280827    22.569782    19.535129 -0.038298732   -7.2060844   0.06267529    8060.0825    440.57446   -1145.8443     1060.145   -2940.8731   -691.58115    -1603.053 
    8000    253.23261   -162.60522    -129.6432   -162.60522            0    7657.5382    18.200554    22.398667    19.427598  -0.19465968   -6.9964412  -0.14601218     7920.013    7403.7605    7249.8192    8319.0351   -999.01343   -611.27208   -457.95263 
    8500    251.73591   -164.16479   -131.39759   -164.16479            0    3237.2568    18.190093    22.495734    19.361649   -0.1350667   -6.8364545  -0.13777541     7922.777    1277.5559    5758.6371    2675.5773    374.75286   -1223.6471    476.69083 
    9000    268.48639   -163.11987   -128.17235   -163.11987            0    2143.6356    18.193277    22.914862    19.391511  0.071113517   -6.7125375  0.088924168    8084.2518    4789.7932   -1107.7646    2748.8782    118.52268   -1449.6772   -3074.0488 
    9500    265.19776   -162.66819   -128.14873   -162.66819            0    5510.4488    17.964246    22.841689    19.262194   0.16167026    -6.604745   0.21431888    7903.9278    1887.6396    4668.8586    9974.8482   -200.16054   -133.98158   -406.27542 
   10000    265.98385   -162.62711   -128.00533   -162.62711            0    5824.5048    18.047554    22.892591    19.463885  0.087235167   -6.7145324   0.10460375    8041.6065    10985.598    4438.1214    2049.7952    1713.8331   -728.39919   -106.83874 
   10500    266.52569   -160.59573   -125.90342   -160.59573            0   -428.67888    18.157846    22.685321    19.436067 -0.071594367   -6.8729716 -0.092272764    8006.0384   -2912.0304    1078.2597    547.73404    237.73617   -3164.7885    629.46829 
   11000    258.08474   -161.99955   -128.40596   -161.99955            0    4668.6701     18.25433     22.47616    19.324059 -0.076598634   -7.0008852  -0.16493478    7928.4149    2738.6958    5855.8966    5411.4179   -2414.0059   -1302.1539   -158.90489 
   11500    259.65023   -163.78238   -129.98502   -163.78238            0    1639.1845    18.304448    22.578544    19.429089  0.031170458   -7.0773892 -0.058833886     8029.805    1359.3064   -122.26753    3680.5147    673.19817    40.988007    3631.1309 
   12000    273.95225   -163.59865   -127.93966   -163.59865            0    4324.3494    18.125808     22.56499    19.366539   0.18193856   -7.0300593   0.15128026    7921.0821    3783.9154    5380.8348    3808.2981    460.01349   -1312.1242    2486.9466 
   12500    268.73207    -162.8305     -127.851    -162.8305            0    3105.2507    18.160385    22.812078     19.42738   0.26706737   -6.9922047   0.26100251    8048.2994    1122.5203    3161.7831    5031.4488    -2727.195    3028.5515   -2002.0256 
   13000    266.37955   -161.56664   -126.89336   -161.56664            0    5071.0176    18.027189    22.816851    19.231931  0.060077366   -6.8242903   0.11964753    7910.5487    9127.8622    4478.5544    1606.6361   -2573.9986    1507.6913    1549.3967 
   13500    258.75842   -163.39715   -129.71587   -163.39715            0    4040.7065    18.154653    22.997244    19.253952  -0.26912944   -6.6690117  -0.18267381    8038.6597    3049.7997    2881.0903    6191.2296      62.1451   -228.09652    1358.1536 
   14000    258.95967   -164.18767   -130.48019   -164.18767            0    5561.3023    18.084035    22.883019    19.271857  -0.30751508   -6.5360019  -0.20467489    7975.0285    5159.2185    5319.3278    6205.3606    1301.7642    998.17621   -1216.0582 
   14500    261.25421   -165.61017   -131.60403   -165.61017            0    1503.0268    18.034316     22.65628    19.363093 -0.031070676   -6.5151487  0.022266682    7911.5757    5220.9994    490.85232   -1202.7714    -620.4496    386.22183   -3134.3329 
   15000    263.68996   -163.12846   -128.80527   -163.12846            0    6190.5942    18.133198     22.58892    19.532465   0.27761498   -6.6974464   0.26192004    8000.6803    6899.0369    5917.7019    5755.0437   -3337.2393    2779.0362   -1689.0551 
   15500    253.90034   -161.92199   -128.87306   -161.92199            0    5428.8191    18.205734    22.508165    19.459772   0.29588146   -6.8946477    0.1982106    7974.1799    9804.1406    4406.1815    2076.1353   -452.59451   -1901.8203   -2197.1755 
   16000    264.64072   -163.05532   -128.60837   -163.05532            0    5716.2655     18.18749    22.470828    19.430687  0.085576324   -7.1273232 -0.051740226    7941.0881    4774.2763    5676.1265    6698.3937   -569.38714   -1585.6436   -1533.3111 
   16500    253.52927   -161.97478   -128.97415   -161.97478            0    2270.7268    18.193519    22.711323    19.411052  -0.15936491    -7.265344  -0.18723616    8020.6248    3192.9875    1821.6654    1797.5276    1302.1968    879.47958    890.71062 
   17000    267.72353   -163.58273   -128.73451   -163.58273            0    3296.2203    18.059347    22.853457    19.263313  -0.24010745   -7.1734079 -0.062749444    7950.3259    2729.7224    1086.7637    6072.1749     25.37168    1390.5463    -2521.585 
   17500    267.55793   -163.99716   -129.17049   -163.99716            0    4795.5794    18.004159    23.029029    19.215353  -0.13275275   -6.9995871      0.23282    7967.0375    4926.8505    3558.7478    5901.1399   -1997.1103   -490.95577    151.58841 
   18000    250.46503   -163.58668   -130.98491   -163.58668            0    4667.1238    18.002438    23.062119    19.253035 -0.028122299   -6.7896664   0.36782398    7993.3668    4890.2891    3858.5395    5252.5429   -1565.8946    -1780.316   -1949.2714 
   18500    255.36583   -163.74924   -130.50956   -163.74924            0     3963.678    18.053511    22.780355    19.330506 -0.00052847034   -6.5768569   0.22585029    7949.9677    6148.8642    3750.7665    1991.4034    1882.5782   -353.30935   -3114.2651 
   19000    267.48087   -164.45505   -129.63841   -164.45505            0    6619.8651    18.123524    22.496363    19.520353 -0.043499247   -6.4846645  -0.09746581    7958.7086    9444.3758    6918.0616     3497.158   -1324.3056     -36.2692    997.57812 
   19500    256.22618   -162.68195   -129.33028   -162.68195            0    2867.7187    18.242387    22.338339    19.633811 -0.093813119   -6.5797419   -0.2609063    8000.8686    4943.5139    4676.1629   -1016.5207    2350.2734   -835.65094    1745.9258 
   20000     250.1704   -163.29942     -130.736   -163.29942            0    3690.4411    18.241146    22.336766     19.57065  0.071171059   -6.8223406  -0.16109564    7974.0263    3486.4932    2923.8605    4660.9694    1153.0769   -190.94258    1403.0039 
   20500    261.01123   -164.16251   -130.18799   -164.16251            0    7993.6146    18.190029    22.556825     19.38753   0.19655263   -7.0698835  0.083738718    7954.8842    9558.6157     6908.098      7514.13    240.62767    -478.6533    778.52294 
   21000    259.82981   -163.81494    -129.9942   -163.81494            0    3354.1716    18.148541    22.750026     19.30208    0.1396535   -7.2538683   0.20038918    7969.4384    199.64493    2034.1851    7828.6847    3384.7389   -253.81424    1199.0525 
   21500    250.34467   -164.71332   -132.12722   -164.71332            0     3970.551    18.115807     22.82033     19.32022 -0.046030845   -7.2842032   0.11917159    7987.1471    2357.5567    6227.7809    3326.3156   -838.25208    589.75011   -3064.2472 
   22000    251.42225   -162.67524   -129.94888   -162.67524            0    5656.7117    18.092091    22.746237    19.325699  -0.21716389   -7.1614884 -0.012546998    7953.0464    1260.8743    7682.2775    8026.9833    2515.0033    1907.1099    1187.3202 
   22500    259.62585   -163.07446   -129.28027   -163.07446            0    3718.1154    18.116988    22.775214    19.471761  -0.26936544   -6.9484799 -0.041131545    8034.4046    2408.0147    4933.3185     3813.013   -53.340588    263.24065    646.60909 
   23000     256.9767   -164.44949   -131.00013   -164.44949            0    4957.4136    18.049316    22.647716    19.462554  -0.10848966   -6.7299662  0.027844376    7955.8204    4494.3792    2021.4662    8356.3955    1034.0298   -747.88123    2419.1844 
   23500    256.25053   -162.98861   -129.63376   -162.98861            0    6019.0618    18.071091    22.623887     19.44496  0.060245919   -6.6442146  0.069003852    7949.8449    3045.1508    7281.9929    7730.0417   -825.81354   -1028.9357    -924.6301 
   24000    265.55485   -161.98799   -127.42205   -161.98799            0    6807.9258    18.202956    22.708206    19.417929   0.13755864   -6.6747884  0.034115323    8026.5268    6827.2806    7076.8733    6519.6234   -462.53409   -1279.8218   -2574.7904 
   24500    268.32027   -163.49096   -128.56506   -163.49096            0    3960.9283    18.182125    22.649486    19.327917  0.097007294   -6.7954449 -0.049138126    7959.5411    5362.1261    5902.8288    617.82994    383.42014    254.90933    1523.9331 
   25000    261.03587   -162.47859   -128.50086   -162.47859            0    4477.7093    18.166017     22.88129     19.30911 -0.043668043   -7.0721993  -0.11809188    8026.0616    5208.6199    2532.1759    5692.3322    3185.8968   -820.61898    1177.1154 
   25500    265.30207   -162.81347   -128.28044   -162.81347            0    2262.2052    18.078381     22.97305     19.29573    -0.250176   -7.4457154 -0.089144864    8013.8166    3003.8068    2030.2202    1752.5884    2223.7373   -58.840383    5216.8239 
   26000    269.77644   -162.62476   -127.50932   -162.62476            0    6781.7283    17.994303    22.883769    19.207413  -0.25462633   -7.6459059   0.14511091    7909.1797    8073.4447     8556.386    3715.3541    2201.9283    1347.5757    1550.5503 
   26500    258.59588   -164.15829   -130.49816   -164.15829            0    5398.6922    18.156721    22.864214    19.393937  -0.13092434   -7.6548821   0.34371665    8051.1829    6552.2353    5018.0087    4625.8327   -1509.5015   -291.26421    -3017.014 
   27000    264.45145   -161.21508   -126.79277   -161.21508            0    8628.6036    18.204818    22.482077    19.388017 -0.037760443   -7.3479437   0.23951833    7935.1687    7081.6206    12251.318    6552.8719    518.46121    2496.0361   -4289.8216 
   27500    259.85862    -163.0805   -129.25601    -163.0805            0    5184.2434    18.213281     22.46336    19.441274  0.018186347   -6.9160939 -0.035482381    7954.0374    7701.0539    2901.7543    4949.9219   -486.14009     1689.697   -920.59523 
   28000      250.408   -162.67003   -130.07569   -162.67003            0    4648.1675    18.221302    22.569675    19.486931  0.016422306   -6.6767687  -0.15405961    8013.9781    4969.0051    5326.2252    3649.2723    1159.9531   -1265.6241    3010.5007 
   28500    270.37406   -163.85356   -128.66033   -163.85356            0    5392.2184     18.10422    22.645751    19.372071 -0.013024743   -6.5679241  -0.11034966    7942.2325    6001.5528    5416.8542    4758.2482    1416.6537    1267.2118    4318.3214 
   29000    257.86606   -162.99295   -129.42783   -162.99295            0     6107.458    18.078226    22.853098    19.358838 -0.039581179   -6.6374754 0.0075638882    7997.9775    6178.1331    6463.7825    5680.4583   -1669.5694    -2464.461   -583.33337 
   29500    259.59594   -161.14387   -127.35357   -161.14387            0     5095.668    18.113904    22.888222     19.38401 -0.084108343   -6.8535866   0.12267482    8036.5146    5137.9157    6770.5998    3378.4884   -992.97282    3360.1167   -1275.4092 
   30000    274.54205   -161.28199   -125.54624   -161.28199            0    8565.5925    18.117859    22.736188    19.369578   -0.1206164   -7.1000482    0.1107865    7978.9308    10358.031    7842.4401    7496.3064    1466.7546    1336.4815    946.07225 
   30500    259.10402   -161.86492   -128.13865   -161.86492            0    6366.9142    18.286452    22.595665    19.427259  -0.07086694   -7.4040599  -0.01112052    8027.2374    6192.2541    5371.3393    7537.1491   -85.966758      548.493   -1845.2416 
   31000     271.3011   -162.41162   -127.09772   -162.41162            0    5348.7765    18.304295    22.379677     19.41796   0.13933741   -7.5151869  -0.11662281    7954.4546    3732.6608    4701.4577    7612.2111    283.33364    121.48709    3615.2385 
   31500    267.47221   -162.79894   -127.98343   -162.79894            0    5990.9556    18.236759    22.499676     19.55562   0.32600023   -7.3118677  -0.06530715    8024.0845    8992.9312    7708.1259    1271.8098   -504.21396    2897.1489   -425.41875 
   32000    261.13646   -163.51093   -129.52011   -163.51093            0    3821.3167    18.103001    22.631524    19.514231     0.321588    -6.812578  0.028720872    7994.9511     6391.622    3803.3873    1268.9407   -2103.0269    715.39405   -1930.1503 
   32500    270.43232   -163.72511   -128.52429   -163.72511            0    6462.2419    18.018492    22.723853    19.323502   0.13688739   -6.5017974  0.038458551    7911.9998    5775.7758    6111.8658    7499.0841   -774.69386    -3053.541    -2573.301 
   33000    264.40735   -162.91757     -128.501   -162.91757            0    3282.1817    18.181002    22.900694    19.405246 -0.090887161   -6.5185266 0.0069279431    8079.5208    3090.6815    4021.7597    2734.1038    700.27436   -2080.8963    -1204.629 
   33500    261.60334   -163.32203   -129.27044   -163.32203            0     5659.337    18.083997    22.674122     19.29206  -0.25587386   -6.5932866  0.040687762    7910.4924    2315.4896    4053.0775    10609.444    1657.3008   -2366.0529    3904.6852 
   34000     256.3309   -164.32662   -130.96132   -164.32662            0    6808.3141    18.099365    22.629112    19.430809  -0.23547008   -6.8692755    0.1570984    7958.3261    9265.0318    5096.1167    6063.7939    724.06553   -1097.9382   -1157.5601 
   34500    249.32987   -164.28832   -131.83431   -164.28832            0    3841.2988    18.160058    22.657354    19.481507 -0.057650355   -7.1188484   0.18733509     8015.839    6743.8774    2529.0231     2250.996   -2448.2965    212.68487   -925.68234 
   35000    251.05893   -164.99225   -132.31317   -164.99225            0    4302.6355    18.150098    22.485346    19.321252  0.063845223   -7.2670087  0.085665005      7885.22    3401.2825    4777.4345    4729.1895    1064.5547   -1047.3599    124.85146 
   35500    255.68153   -164.39408    -131.1133   -164.39408            0    5233.1406    18.268814     22.69176    19.358604  0.043140337   -7.3392689  -0.14666699     8025.139    6217.2334    4370.8971    5111.2913   -1969.9363    1625.9929    2063.1013 
   36000    265.04956   -164.16099   -129.66083   -164.16099            0    7452.3789    18.174448    22.709678    19.375157  0.020088364   -7.1225106  -0.27817585     7996.822    5860.4354    6884.2817    9612.4196    1355.7953   -972.07781    2280.8272 
   36500    262.07355   -163.45693   -129.34413   -163.45693            0    2157.7725     18.01884    22.693812     19.32506   0.07371796   -6.7417458 -0.065179125    7902.3297    3960.6639    2280.9653    231.68822   -1648.6218    493.34669    1969.6089 
   37000    258.29191   -163.42786    -129.8073   -163.42786            0    3930.1729    18.078177     22.90388    19.458457  0.056422641   -6.4596448   0.21600308    8056.9767    7699.7283    -15.50864     4106.299    1110.5187   -474.20274    1717.2692 
   37500    265.90057   -163.87735   -129.26642   -163.87735            0    7353.4895    18.036022    22.706404    19.357276 -0.090617179   -6.3816729   0.27427508     7927.447    3869.5095    10293.532    7897.4271   -2037.8229   -543.11183   -2117.3107 
   38000    254.60984   -161.41552   -128.27423   -161.41552            0    2837.0746    18.157405    22.635756    19.484782  -0.32352395   -6.5191491  0.096626006    8008.3737    338.01815    4431.5438    3741.6619    3157.1739   -1360.3611   -235.35242 
   38500    257.61965   -162.11538   -128.58233   -162.11538            0    7726.3015    18.185813     22.59908    19.482594  -0.33438936   -6.7307657 -0.096285683    8007.0078    10122.821    7587.6283    5468.4549    1207.3769    709.33237     1574.864 
   39000    255.71952   -163.93263   -130.64691   -163.93263            0    3033.1645    18.143366    22.638108    19.404561 -0.090016128   -6.9029534  -0.13815914     7970.064    233.38906    4270.1109    4595.9936    2542.2336    1612.9681    112.38351 
   39500    264.85163   -163.17393   -128.69952   -163.17393            0    4400.1558     18.13431    22.732445    19.365513   0.14788061   -7.0548762 -0.060468607    7983.1854     6573.215    1323.1042    5304.1483    1313.0482    -1720.556    3552.5519 
   40000    265.87384   -164.06513   -129.45767   -164.06513            0    7405.5651    18.100648    22.783278    19.399106   0.28170689   -7.0777133   0.16255731    8000.0381    10969.333    3921.0028    7326.3595   -3513.8016   -128.64405    -2612.286 
   40500    259.11032   -164.30869   -130.58161   -164.30869            0    4108.4773    18.146302    22.608848    19.418832   0.12880679    -7.076898   0.21272118     7966.906    2787.7404    3242.3484    6295.3433   -934.89331    80.455346    2325.8344 
   41000    252.66647    -163.1436   -130.25528    -163.1436            0    5350.9251    18.227324    22.561393    19.472601  -0.28019028    -6.989193 0.0061346246    8007.7921    9191.3057    4455.0093    2406.4602    61.221389   -1690.4997    3617.3675 
   41500    252.93057   -161.82352   -128.90083   -161.82352            0     8309.112    18.193915    22.544914    19.386065  -0.66928741    -6.785016  -0.22120739    7951.7812    4569.6054    9387.8888    10969.842    1693.6613    781.12587     4098.249 
   42000    254.64826   -162.49169   -129.34541   -162.49169            0    5153.9241    18.155962    22.710269    19.474781  -0.59107109   -6.5565129  -0.14607438    8029.9736     8316.193    5959.6045     1185.975   -1799.1591   -935.60099   -618.42914 
   42500    257.75589   -162.18304   -128.63225   -162.18304            0    4080.2849    18.087698    22.766177    19.359338  -0.10997885   -6.4204513   0.19823374    7971.9379    2707.3374    5326.1461    4207.3712    1207.0447   -601.76057    1311.4935 
   43000    259.99257   -161.54517   -127.70324   -161.54517            0    5093.6384    18.066334    22.874438    19.295442   0.23349115   -6.4513659   0.29787169    7973.9813    7191.1834    3698.6726    4391.0592   -3003.1464   -811.26855   -15.956971 
   43500    260.30434   -162.91465   -129.03214   -162.91465            0    2616.5749    18.087158    22.847282     19.30259   0.24476022   -6.6440263   0.13021244    7976.6485    1044.4953    2218.0045     4587.225    685.73095   -19.594867    1843.9547 
   44000     259.1983   -162.99059   -129.25206   -162.99059            0    3119.3192    18.122959    22.769235    19.306813   0.13421206   -6.9220798 -0.085788688    7966.8776    6421.0624   -865.39515    3802.2905   -2142.3241   -318.74627   -634.31453 
   44500    255.31587   -162.57751   -129.34433   -162.57751            0    4070.9149    18.158594    22.688616    19.379304 -0.047891048    -7.178543  -0.17103003    7984.1448    3597.0503     5480.068    3135.6263    968.26036   -2314.7131    3317.5093 
   45000    247.65262   -163.56104   -131.32534   -163.56104            0    3279.3153    18.129877    22.658929    19.472388  -0.10996249   -7.2877108 0.0085313868    7999.3272     5257.132    673.72274    3907.0911    1142.9869   -115.71177     2174.148 
   45500    256.95466   -164.13365   -130.68716   -164.13365            0    3791.1203    18.138909    22.550579      19.4044  -0.07999157   -7.2980967   0.29677875    7937.2324   -96.343578    4263.4907    7206.2137    684.40621   -647.38814   -237.99493 
   46000     259.5821   -163.87311   -130.08462   -163.87311            0    2404.8743    18.265155    22.579089    19.370124  -0.14274574   -7.1635776   0.34557383    7988.4433    3066.2215    2100.0167    2048.3849     3150.933   -995.77198   -3216.8613 
   46500    255.71397   -163.31502   -130.03002   -163.31502            0    6781.4729    18.126408    22.702424    19.436062  -0.17839178   -6.7870262  0.047981128    7998.1997     7890.878    6736.0464    5717.4942   -1044.4965    810.18356     762.0436 
   47000    249.81385   -161.58391   -129.06689   -161.58391            0    5729.0891    17.964099    22.755678    19.501871  -0.14590243   -6.4845469  -0.25916615    7972.0771    6325.7581    6411.0821    4450.4272   -384.14825   -898.77611    2821.7581 
   47500    266.11913    -162.6811   -128.04171    -162.6811            0    8655.1763    17.947901    22.890327    19.445452 -0.0048594235   -6.4071564  -0.28291671    7988.8399    10342.744    8669.5689    6953.2161    65.477255    1108.8602    997.18622 
   48000    268.89079   -163.32534   -128.32518   -163.32534            0      5760.86      18.1009    22.945708    19.340995   0.21373722   -6.5369245 -0.0056242187    8033.0494      2682.08     6132.562    8467.9382   -517.77886   -515.78873   -1044.5402 
   48500     255.2604   -161.84953   -128.62357   -161.84953            0    5561.8413    18.129659    22.726681    19.232862   0.28685704   -6.7333201   0.23482021    7924.4581    3992.4201    6502.7231    6190.3807   -2958.6184   -1410.7909    -1417.159 
   49000    261.59042   -161.73863   -127.68872   -161.73863            0    2910.6051    18.182213    22.756514    19.433342  0.045782431   -6.9193268   0.21043251    8040.8133    427.76718     4103.429     4200.619   -1384.9013   -3398.8856   -6175.1405 
   49500    285.17613   -160.70429   -123.58435   -160.70429            0     8324.847    18.132617     22.65211     19.47945  -0.18087521   -7.0173693  0.071212622    8001.0288    6698.3663    10655.907    7620.2678   -594.96088   -1559.6201    1208.8723 
   50000    263.27521   -161.32091   -127.05171   -161.32091            0    7546.5182    18.073359    22.650198    19.452746  -0.20817527   -7.0346695  0.027643226    7963.2765    9054.8892    6886.0065    6698.6589    1363.6051   -1567.7438    2091.5066 
   50500    251.78448    -162.4453   -129.67178    -162.4453            0    4188.6323    18.134013    22.758657    19.426482  -0.14688852    -6.991682  0.041673617    8017.4215    2287.9504    7578.9698    2698.9766    917.49109   -1502.1508   -1284.2906 
   51000     265.6665   -162.78256   -128.20209   -162.78256            0    8163.6901    18.166808     22.74188    19.303385  0.084504222   -6.8972021   0.07221931    7975.1428    7455.0306    9091.7048    7944.3349    75.741748    977.52405   -36.980744 
   51500    265.43024   -163.71478   -129.16506   -163.71478            0    5497.9837    18.141526    22.794683     19.31945   0.32387844   -6.7675237   0.01200903    7989.1785    2392.4023    6905.8732    7195.6755   -944.18124   -1471.6439    2022.1311 
   52000    265.62466   -165.43094   -130.85592   -165.43094            0    1791.0666    18.106473    22.691713    19.457944   0.25387078   -6.6938012  -0.11043262     7994.625    2678.4604    3355.8651   -661.12559    -1637.558   -675.47722   -141.99803 
   52500    265.92339   -162.65617   -128.04226   -162.65617            0    7245.7408    18.043729    22.538914    19.625052  -0.10308178   -6.5986916  -0.27580266    7981.2351    8561.5155    4305.4888    8870.2181    2388.0624    783.96648    3369.3531 
   53000    264.71525   -164.26381   -129.80716   -164.26381            0    5434.0009    18.225414    22.495005    19.622844  -0.43989635   -6.7038762  -0.12432561     8044.989    4002.8668     8578.899    3720.2368    2459.3757    -1721.538    95.052193 
   53500    266.84304   -163.26829   -128.53467   -163.26829            0     5091.117    18.279314    22.535406    19.322937  -0.52765886   -6.8331963   0.30954385    7959.7315    7250.8439    4435.1578    3587.3492   -2407.7227   -789.19428   -4991.1385 
   54000    263.51351   -162.23024   -127.93001   -162.23024            0     7031.836    18.202325    22.678364      19.3269  -0.36741284   -6.9170531   0.53064381     7978.124    7492.0405    8231.8842    5371.5833   -109.69166    448.12564   -1663.3143 
   54500    249.38564   -163.64224   -131.18096   -163.64224            0    339.39727    18.053179    22.754749    19.450499  -0.12504529   -6.9848574    0.3277015    7990.1785   -1204.0303    1880.0433    342.17879     -524.129   -881.54679    -4981.911 
   55000    260.04009   -163.34564   -129.49753   -163.34564            0     7680.925    18.019617    22.731041    19.442624  0.027611899   -7.0464916 -0.056157342    7963.7891    10968.677    5602.7513    6471.3462       220.59    1886.5671   -2009.8377 
   55500    248.15429   -163.44006   -131.13906   -163.44006            0    6775.4047    18.108437    22.670254    19.367262   0.10005029   -7.1583795  -0.24940583    7950.7036    8355.0983    6743.6873    5227.4285   -1185.4178    1344.1733    2885.6014 
   56000    264.99934   -162.17639   -127.68276   -162.17639            0   -2247.2236    18.215489    22.798302    19.285803   0.18771221   -7.1166294   -0.2124277    8009.0511   -1567.4262   -3147.1309   -2027.1136   -2630.6178   -1672.8734     1537.413 
   56500    261.89599   -162.43667   -128.34699   -162.43667            0    5552.1455    18.083823    22.788908    19.307729   0.17701134   -6.9351066  0.016949442    7956.9197     4456.877    4104.3229    8095.2364   -1417.5995   -197.48407   -1574.7393 
   57000    261.15702   -163.05808   -129.06458   -163.05808            0    179.40933    17.997583    22.837831     19.46836 -0.031092439   -6.7576371    0.1957151    8001.9974     617.9568   -718.84176    639.11295    688.09042   -2777.7484   -458.52644 
   57500    259.14501   -162.92837   -129.19676   -162.92837            0    4168.3349    18.028197    22.751408    19.469347  -0.23613427   -6.5660468   0.22607233     7985.681    3002.8631    6095.6783    3406.4633     2911.155     791.9033    162.66345 
   58000     255.3404   -162.41664   -129.18027   -162.41664            0    8593.5754    18.188823    22.508973    19.385239  -0.32808187   -6.5013623   0.11589226    7936.5438    10846.408    8545.5941    6388.7242   -54.991264   -202.44596     689.2324 
   58500    251.32239   -161.48563   -128.77226   -161.48563            0    3282.4108    18.425759    22.533253    19.488121  -0.18838755    -6.513938  0.034804101    8091.3174    1540.0553    4028.4987    4278.6782   -910.40896   -1332.6129   -2579.0062 
   59000    265.20257   -162.68099   -128.16091   -162.68099            0    9372.6719    18.145124    22.420745    19.411275    0.1675195   -6.5981924 -0.012469243    7897.0345    7888.9898    8963.1579    11265.868    1445.7908   -1190.8623    2235.7242 
   59500     263.4497   -162.68269   -128.39077   -162.68269            0    4609.0949    18.106904     22.76763    19.592974   0.36193392   -6.7861334 -0.028069959    8077.2288     1410.937    4621.4911    7794.8567   -2528.2439    181.27357   -25.578662 
   60000    251.53902   -162.70009   -129.95852   -162.70009            0    5617.7875    17.954841     22.79358     19.43965   0.33487491   -6.9232156 -0.056190406    7955.7762    4945.1528    5384.6024    6523.6074    775.19719    455.63975    2908.6812 
   60500    256.39765   -163.84013   -130.46614   -163.84013            0    5070.2052    18.055612     22.95306    19.299563   0.13666023   -7.0354219 -0.072107359    7998.3479    3834.6509    4383.1391    6992.8254    621.04423    1716.3877    1858.5589 
   61000    253.43371     -162.748   -129.75981     -162.748            0    5753.3227    18.169979    22.913331    19.233225 -0.099952798   -7.0547012 -0.015730263    8007.4595    7548.8216    5541.0719    4170.0746    3496.2509    975.67903     5746.917 
   61500    261.18588   -162.91487   -128.91762   -162.91487            0    4165.1759    18.114441    22.708601    19.301673  -0.19135987   -6.9861596  0.096056332    7939.8127    6053.6567    3575.1666    2866.7045    363.61113    876.77851    2271.1178 
   62000    266.85371   -163.29574   -128.56073   -163.29574            0    4041.5221    18.194521    22.647558    19.561445  -0.19049454   -6.9369373  0.087512084    8060.5175    1424.7842    4212.5513    6487.2308    1866.0843   -2810.8708    1552.9169 
   62500    260.67688   -162.89778   -128.96678   -162.89778            0     4503.681    18.090392    22.411742    19.543445 -0.064932368   -6.8100285 -0.039631054    7923.6394    4862.8563    5356.3933    3291.7935    2989.7618     3315.322   -696.91853 
   63000    273.84319   -162.28594   -126.64115   -162.28594            0    1471.1636    18.172549    22.649263     19.54203   0.19033344   -6.6628294  -0.14786817    8043.3986    3154.3269   -500.15579    1759.3196   -1194.4689   -976.55137   -1682.3382 
   63500    268.24487    -163.6872   -128.77111    -163.6872            0    4572.3951    18.264906    22.836981    19.362112   0.51689562   -6.5443543  -0.15100797    8076.2334    2092.3047    5801.6951    5823.1854   -943.73686   -1787.1519    1105.7431 
   64000    272.65839   -163.60003   -128.10946   -163.60003            0    6878.5962    18.033627    22.872022    19.120211   0.49956034   -6.4067388  -0.10716993    7886.4276     6783.314    5961.7233    7890.7514   -993.85911    766.51541    1412.5357 
   64500    254.01206   -162.37402   -129.31055   -162.37402            0    941.80277    18.083645    23.141397    19.337567   0.21913242   -6.5549794 0.0024743032    8092.4002    347.64613   -98.484574    2576.2468   -1293.7421   -897.09165    685.38339 
   65000    253.76414   -163.90971   -130.87851   -163.90971            0    2582.9332     17.92905    22.853826    19.321003  -0.15977682   -6.7337189  0.065657117    7916.7304    3698.4448    2148.1338    1902.2208    8.7610649   -803.24021   -731.86634 
   65500    250.71872   -163.34614   -130.71135   -163.34614            0    3970.0563    18.060835    22.758056     19.42472  -0.31664649   -6.9411197  0.099914799    7984.1328    2882.0776    4477.8379    4550.2534    957.22602   -1833.0277    1674.3831 
   66000    258.75448   -160.91914   -127.23837   -160.91914            0    3387.0922    18.220689    22.659242    19.422195  -0.24023592   -7.0572883  0.089654398    8018.7833    226.83636    3688.7159    6245.7243    1364.9595    844.95683   -1992.7969 
   66500    272.24344   -163.13794   -127.70138   -163.13794            0    7277.8962    18.277038     22.53233    19.348938 -0.0016025791   -7.0643661  0.064952901    7968.3615    4775.2691    7423.9549    9634.4645    808.01648   -831.01028    663.17192 
   67000     248.4353   -162.30858   -129.97101   -162.30858            0    4722.1742    18.244478    22.608698    19.398406   0.21173771   -6.9667106   0.03990449    8001.5302    8718.7209    1426.3821    4021.4195    4263.7115   -2207.0464   -161.18181 
   67500     261.6757   -163.63316   -129.57215   -163.63316            0    4249.9236    18.066251    22.706403    19.466788   0.30473076   -6.7556214 -0.059574819     7985.657    2539.1244    5025.3953    5185.2512   -2260.7251     -1961.11   -479.39121 
   68000    255.54088    -163.3158   -130.05333    -163.3158            0    5454.5298     17.93252    22.847421    19.445354   0.27933327   -6.5441054  -0.12724387    7966.9916    7017.9925    5387.4701     3958.127    -512.4539   -1373.4838    1876.0509 
   68500    264.84225   -162.12329   -127.65011   -162.12329            0    3754.4542    17.985659     22.99762     19.27291  0.070941296   -6.4233739  -0.11514175    7971.8024    3974.4189    3127.1575    4161.7863    1639.7564    3593.5118    1511.3076 
   69000    256.91972   -163.81671   -130.37476   -163.81671            0    6115.0755    18.167407    22.980802    19.113059  -0.26272083   -6.4574793   0.10591466    7979.7327    4020.0621    6906.5887    7418.5758    2570.7619   -148.52927    -1021.443 
   69500    252.43663   -163.46733   -130.60893   -163.46733            0    3998.9893    18.265206    22.793161    19.183369  -0.56571362   -6.6854037   0.30572473    7986.4544    5407.9437    2276.2482    4312.7759    3025.8114   -106.97012    677.38504 
   70000    253.45286   -162.45607   -129.46539   -162.45607            0    9598.5275     18.18458    22.500085    19.488444  -0.55489478   -6.9220437   0.33064972    7973.7865    9491.7457    9549.6996     9754.137    3203.1384   -854.31413   -3164.8592 
   70500    252.21941   -163.67446   -130.84432   -163.67446            0    7053.4469    18.095812    22.453281    19.581437  -0.31226785    -7.088161   0.20304877    7956.1405    8700.0505    4812.9949    7647.2953    575.06239    582.55466    64.035625 
   71000    251.24858   -162.55643   -129.85267   -162.55643            0    6692.0219    18.138533    22.619753    19.512877 -0.037746586    -7.116346 -0.014697723    8005.9214    4212.4977    9050.3122    6813.2557   -1340.7902    931.19729   -503.26506 
   71500    263.53842   -164.11286   -129.80939   -164.11286            0    9894.2287    18.168241     22.67422    19.315338   0.20866035   -7.0658295  -0.13811276    7956.9669    12691.483    10526.416     6464.787   -4710.4419   -357.86764    1069.2834 
   72000    273.39766   -161.88536   -126.29856   -161.88536            0    6662.5042    18.182296    22.800901    19.324732   0.21545043    -6.933447  -0.12550786    8011.5067    7350.7392     5956.257    6680.5164    336.61604   -1251.6471    199.12471 
   72500    256.50798   -162.48063   -129.09228   -162.48063            0    7369.3999    18.116127    22.856756    19.514449   0.16435444   -6.7004528 -0.077684733    8080.4629    11200.261     4189.292    6718.6467   -1716.8572   -1007.8651   -2119.7434 
   73000    261.51097    -164.6364   -130.59683    -164.6364            0    8450.0037    17.921508    22.604173    19.487405  0.028374706   -6.4647923  -0.06791245     7894.365    11162.688    8646.0628    5541.2606   -2788.4571   -1716.3311     173.9054 
   73500    262.76717   -163.06215   -128.85907   -163.06215            0    6593.1977    18.113633    22.722423    19.512238  -0.15150583   -6.4743222 -0.030711304    8030.9568    4163.8379    5805.4807    9810.2745    249.22037    1391.0268     -3196.14 
   74000    263.13129   -164.06154   -129.81106   -164.06154            0    8508.0025    18.209967    22.669305    19.272345  -0.24311157   -6.6116915    0.0409627    7955.7648    11955.231    8172.7876     5395.989    3316.9142   -1358.3077    3409.4206 
   74500    251.01956   -162.70786    -130.0339   -162.70786            0    2122.8848    18.308268    22.670119    19.229742  -0.15492223   -6.8866993   0.21472986    7981.3163   -725.63008    2429.8731    4664.4115     1598.749     363.9949   -1051.6982 
   75000    260.42323   -161.78492   -127.88694   -161.78492            0    7050.1477    18.151192    22.716782    19.446758  0.077873497    -7.153975   0.28523562    8018.6116    6659.6916     6418.421    8072.3305   -21.194329    1924.9299   -1267.0126 
   75500    250.70554   -162.90203   -130.26895   -162.90203            0    2658.8855    18.002801    22.708097    19.597868   0.12869852   -7.2905061   0.13943018    8011.7919    1929.0562    5566.8018    480.79843    2245.9029     -373.064    1219.3418 
   76000    248.43203    -161.3476   -129.01045    -161.3476            0    5371.1616    18.007272     22.63278    19.434131  0.047521401   -7.3487773  -0.15222847    7920.4702   -52.667702    6202.8678    9963.2847    1529.2014   -614.07919     617.4872 
   76500    243.81174   -164.73941   -133.00367   -164.73941            0     6283.275     18.26212      22.7706    19.384818 -0.010343222   -7.3203474  -0.26422919    8060.9719    7518.2647    5799.4564     5532.104    414.20938    -614.0894    4845.5298 
   77000    254.19315   -165.34851   -132.26146   -165.34851            0    4447.0502    18.214664    22.583736     19.18495  0.018158142   -7.1091902 -0.060867144    7891.8281    5563.8362    3845.2664    3932.0481   -2949.4985    848.33551    2754.0155 
   77500    259.74168   -163.52364   -129.71437   -163.52364            0    2896.8091    18.251671    22.671622    19.428949  0.080820104   -6.9044726   0.21685339    8039.6018    -398.9076    3423.2781    5666.0569   -1027.2728    2270.3222   -2216.2823 
   78000    262.08291   -160.75283   -126.63882   -160.75283            0    5745.3721    18.125218    22.603913    19.586417  0.022090159   -6.7095711   0.27879108    8024.5718    8590.7273    3783.1432    4862.2459    599.82945   -3095.9307   -1572.2902 
   78500    253.17307   -163.95354   -130.99928   -163.95354            0    3559.1097    18.073601    22.557237    19.511507  -0.17265396   -6.6271437   0.15937916    7954.6563    3736.2314    2035.6656    4905.4319    2199.3264   -1416.1764   -3766.2548 
   79000    254.57325    -163.6408   -130.50428    -163.6408            0    4485.4362    18.133623    22.665487    19.405289  -0.25623609   -6.7272783 -0.035455363    7975.7175    5262.0556    3101.7567    5092.4964    1673.4963    4.2997709    1370.9194 
   79500    257.86069   -162.43091   -128.86649   -162.43091            0     5301.978    18.243615    22.728878    19.320546 -0.063751193   -6.9242062 -0.095754599    8011.3978    5534.6716    4863.4802    5507.7823   -2140.4227     -1107.45   -1221.9242 
   80000    264.50972   -162.74088   -128.31098   -162.74088            0    7339.5945     18.21825    22.745444    19.251289   0.21725291     -7.07191  -0.02162538     7977.391    8573.9333    7627.0001    5817.8502   -1092.6664    2480.7889    34.888393 
   80500    260.15011   -163.02744     -129.165   -163.02744            0    4975.3303    18.168378    22.683984    19.421795   0.39116081    -7.143704 0.0065933713    8004.3276    6628.8022    1943.6471    6353.5416   -1530.0269    499.50898   -3079.3483 
   81000    265.17113   -163.84984   -129.33385   -163.84984            0    5892.1872    17.993766    22.628884    19.532471   0.34321675   -7.0816385 -0.012291013     7953.209    10197.469    4263.3203    3215.7721    418.02375   -1842.8198    1337.3691 
   81500     258.5512   -163.86203   -130.20772   -163.86203            0    3384.1745    18.001098      22.7288    19.608878  0.022953815   -6.9294041 -0.057489611     8022.842    5289.3589    3874.9969    988.16775   -3032.5103   -61.007733    203.02405 
   82000    251.95202   -162.81315   -130.01783   -162.81315            0    2335.8037     18.15722    22.776718    19.429169  -0.37329032   -6.6776404  -0.05019923    8035.1639    1813.0216    3885.7226     1308.667     984.3192   -204.29567   -1888.0572 
   82500     273.0748   -162.45851   -126.91374   -162.45851            0     4627.233    18.186709    22.735044     19.19366  -0.45919978   -6.4959618   0.12766597    7936.1101    3764.1697    3403.3675    6714.1619    928.12836   -111.68142   -2106.1191 
   83000    251.37131   -161.20371   -128.48397   -161.20371            0    4044.4032    18.311808     22.84581    19.402578  -0.25181607    -6.514117   0.26386734    8117.0315   -28.143414     4723.756    7437.5971    1469.5431    -513.1882   -901.29386 
   83500    257.35718   -161.81664   -128.31775   -161.81664            0    7781.2459    18.060689    22.657947    19.395248   0.10242312    -6.558093   0.22030981    7936.8871    8050.4055     7231.037    8062.2953   -847.80645   -762.07051    2505.6051 
   84000    269.08504   -162.07847   -127.05303   -162.07847            0    5142.1359    18.113238    22.666502    19.500248   0.21747446   -6.7213248  0.015123495    8006.0947    4378.1014    5427.9144    5620.3918     -363.269   -859.17953    1110.9127 
   84500    265.88442   -162.91072   -128.30188   -162.91072            0    6399.0675    18.167747     22.66433    19.493154   0.12635928   -6.9386164  -0.19530218    8026.4972    3674.2281    7410.8461    8112.1283   -524.23189    1024.8409    -255.9139 
   85000    255.88987   -162.93684   -129.62895   -162.93684            0     917.5225     18.21631    22.651254    19.383952 -0.0023282167   -7.1185603  -0.22450002    7998.2501    4399.4161    3031.6849   -4678.5335    2641.8903     1778.356   -1360.2075 
   85500    260.90965   -161.73549    -127.7742   -161.73549            0    8131.1186    18.311157    22.657473    19.223558  -0.13977041    -7.295662 -0.025986699    7975.5575    4368.8971    8878.4102    11146.048   -318.54526    1995.0956     1090.832 
   86000    257.48313   -162.22696   -128.71168   -162.22696            0    5330.6855     18.33511    22.749933    19.240592  -0.17993999   -7.2918019   0.18710708    8025.6842    3736.2618    5355.9233    6899.8713    932.64531    3366.5517    952.02716 
   86500    254.73916   -163.51339   -130.35528   -163.51339            0    3797.1625    18.139492    22.669471    19.422265  -0.10306258   -7.0441428   0.31818174    7986.6815    2894.2013    2796.6827    5700.6034   -554.60345    2118.4985   -2425.2622 
   87000    257.62198   -164.41492   -130.88157   -164.41492            0    9768.2309    17.981039    22.627428    19.549994 -0.079964765   -6.7582672   0.19066372     7954.202    10584.876    10287.338    8432.4794    410.23994    1656.1262    1793.0926 
   87500    262.00485   -163.83219   -129.72834   -163.83219            0    5256.0069    18.019037    22.787588    19.544941 -0.021749793   -6.5261505 -0.064825636    8025.3559    5941.1028    5948.5286    3878.3892    954.73343   -1320.9115    2589.9599 
   88000    263.31487   -162.67733   -128.40296   -162.67733            0    3044.7034    18.138723    22.726551    19.297599  0.030300225   -6.4646233  -0.31296315     7955.061    6119.5054    292.79319    2721.8117    900.71209   -1506.6303    5737.0612 
   88500    258.62576   -163.32136   -129.65735   -163.32136            0    6247.2527     18.28442    22.750613     19.22029  0.084914743   -6.5685439  -0.29998776    7995.2899    6739.9516    6170.4675    5831.3392   -1688.2704    26.049652    1793.3812 
   89000    253.07236   -164.70538   -131.76422   -164.70538            0    5755.7952    18.200173    22.731881    19.348796   0.17732152   -6.7026945 -0.090741832    8005.0644    1883.4142    5941.8702    9442.1013    558.30745    552.55947    652.40517 
   89500    259.97757   -165.71197     -131.872   -165.71197            0    8788.7302    18.024123     22.50095    19.494838  0.071400293   -6.9352185  0.098450165    7906.3243    6271.3499    8913.8207     11181.02   -1237.1911   -1562.0219    294.24934 
   90000    260.88942   -165.67506    -131.7164   -165.67506            0    8656.9996    18.113838    22.631304    19.552445  -0.17663307   -7.2562101   0.14764216    8015.3247    9110.9879    7240.2279    9619.7831    -858.9185   -551.41644     576.5372 
   90500    260.95347   -162.97321   -129.00621   -162.97321            0    6643.3222    18.218848    22.676819    19.401896  -0.38799981   -7.3964943  0.062760858    8015.8061    5852.5481    7456.5271    6620.8915      1221.74    135.25235    -1695.094 
   91000    258.68062   -163.10408   -129.43293   -163.10408            0    6307.7864    18.220855    22.698701    19.280451  -0.31098801   -7.3049101 -0.045493956    7974.1966    5468.4397    7826.9526    5627.9669    722.71354    -2161.734    1158.3415 
   91500    244.33666   -164.68883   -132.88476   -164.68883            0    6542.0097    18.093859    22.840409    19.310598  0.049338506   -6.9869955 -0.090502552    7980.5125    4843.1618    8989.8056    5793.0617    1370.4254   -254.08285    2560.5282 
   92000    258.01346   -163.53181    -129.9475   -163.53181            0    4324.3315    18.028174    22.815854    19.377655   0.37827679    -6.593467  -0.10192171    7970.5759    6453.7771    3471.6895    3047.5278   -2732.6871   -206.14638   -468.65869 
   92500    255.29604   -163.64598   -130.41538   -163.64598            0     5282.523    18.102237    22.759543    19.400957    0.2674325    -6.365162 -0.082201028    7993.1682    2372.1064     4721.644    8753.8185   -875.58146    206.75977   -240.54689 
   93000     255.0165   -162.53969   -129.34548   -162.53969            0    4284.0842    18.180345    22.615171    19.460058  0.097497143   -6.4173437  -0.01577984    8001.0344    3368.9182     4169.126    5314.2082    867.60337   -1845.0378    1000.7813 
   93500    260.80553   -164.02462   -130.07687   -164.02462            0    6673.3721    18.259475    22.513584    19.543501  -0.11902807   -6.6424078  0.073267401    8034.0637    7933.1113    7337.2619    4749.7429     454.7355   -744.30497    1792.4156 
   94000    255.05165   -163.94686   -130.74807   -163.94686            0    9203.5875    18.189428    22.427551    19.445484  -0.27923614   -6.9644944   0.14336835    7932.6751     9352.579    8054.6722    10203.511     2028.381   -1357.3801   -1058.8598 
   94500    257.75597   -163.68301   -130.13221   -163.68301            0    6049.8354    18.206276    22.621875    19.498197  -0.28218825   -7.3467939   0.16812902     8030.529    8370.5399    6628.7108    3150.2556    1825.2964    1623.1194   -5065.1478 
   95000    260.62185   -165.69787   -131.77403   -165.69787            0     6669.032    18.092639    22.727833    19.419768   -0.2057571   -7.4509927   0.12531891    7985.5346    6327.6615    7244.4758    6434.9588   -2754.4499   -1507.3747    886.88532 
   95500    255.99607   -162.98495   -129.66323   -162.98495            0     3992.046    18.096591    22.820326    19.318552 -0.007412744   -7.3412584  0.050211228    7977.9847    3108.8218    5154.2438    3713.0725    43.739637     2645.357   -2770.7346 
   96000    266.40436   -162.58778   -127.91127   -162.58778            0    6534.0876    18.128527    22.879545    19.393805   0.26465092   -7.0181264 -0.057766393    8044.0159    7177.3896    7531.5431      4893.33   -2031.4358   -272.96951    1162.4971 
   96500    263.83624    -162.5287   -128.18647    -162.5287            0    6082.5311    18.155751     22.71381    19.345392   0.29702692   -6.6229309  -0.14327083    7977.7745    5219.0101    6320.7715    6707.8118    666.64937   -1532.1075    1509.7106 
   97000    264.39401   -164.07361   -129.65878   -164.07361            0    5117.5412    18.178047    22.620556    19.373081   0.19273812   -6.3808273  -0.14704523    7966.1626    2026.3287    5450.8417    7875.4533   -491.93313    1287.9272   -3175.7448 
   97500    267.75829    -163.6091   -128.75635    -163.6091            0    5745.1359    18.257728    22.629835    19.540803  0.021537112   -6.2833669 -0.065903513    8073.6612    7663.7056    5010.7728    4560.9294   -265.19812   -365.74818   -987.10252 
   98000    251.46016   -163.31116   -130.57986   -163.31116            0    8097.7223    18.103591    22.517981    19.454118  -0.12742202   -6.3718147  0.026192805    7930.5938    7755.6009    8044.6454    8492.9205    1033.8209   -1686.7803    -1053.461 
   98500    254.97523   -163.33103   -130.14219   -163.33103            0    5076.0934    18.082176    22.748091    19.405843  -0.19107623   -6.7218792    0.1979277    7982.3023    5176.8129    5526.6799    4524.7875    1430.7012   -375.72338   -346.29195 
   99000    261.48537   -163.74893   -129.71269   -163.74893            0     3799.358    18.176975    22.920233    19.347485  -0.18204742   -7.0300624   0.30915669    8060.5591    5056.9463    2800.1044    3541.0232   -957.54622   -224.88201   -1037.5475 
   99500    269.87383   -162.53288   -127.40476   -162.53288            0    5060.4915     18.11438    22.777876    19.204681 -0.067579063   -7.1099658    0.2009354    7923.9878    6913.6377    6043.7449    2224.0918    1170.3435   -1628.7629     1904.522 
  100000    252.29457   -162.62446   -129.78454   -162.62446            0    3388.9841    18.257384    22.775389      19.3966  0.027933282   -7.1679599 0.0073309409    8065.4749     2511.599    1989.4985    5665.8549    509.82326    1347.0209   -2039.2996 
  100500    256.89591   -162.16463   -128.72579   -162.16463            0    5769.3217    18.199649     22.63135    19.474059  0.032725498   -7.0055453  -0.13940763    8021.0261    5303.9332     6852.283    5151.7489    -1116.992    52.761321    3340.8349 
  101000    255.11653   -163.67917   -130.47194   -163.67917            0    6375.0871    18.100579    22.505094    19.494433  0.061716069   -6.8274446 -0.065453704    7941.1593    6974.7175    5330.1904    6820.3535   -837.90263   -1738.7496    -677.9907 
  101500    253.99201   -163.45025   -130.38939   -163.45025            0    3938.2311    18.155708    22.661786    19.624886  0.097273008   -6.7582282   0.13966414    8074.4776    6369.3955     4472.366    972.93201    703.11015   -1377.5938    1966.7785 
  102000    267.45289   -164.20104   -129.38805   -164.20104            0    5458.0363     18.08833    22.637687    19.363579  0.029761329   -6.7236143   0.28751528    7928.9584    6718.9597    4963.7265    4691.4228   -1248.7839   -123.51662   -1379.5156 
  102500    252.12221   -163.41205   -130.59458   -163.41205            0    3687.9106    18.210079     22.84146     19.30766  -0.18160967   -6.8301371   0.23348192    8030.9203     4992.159    2170.9656    3900.6072     459.6019   -3206.6505   -3536.8673 
  103000    261.96948   -162.98948   -128.89023   -162.98948            0    7862.2217     18.08991    22.945914    19.225758  -0.36851412   -6.9698947 -0.014719837    7980.4105    8199.8188    7550.0339    7836.8123    8.6827747    1285.6152   -113.28861 
  103500    259.18493   -164.35719   -130.62039   -164.35719            0    5580.6503    18.012553    22.962321    19.276275  -0.34603071    -7.107907  -0.20879876    7972.8609    8091.4701    2584.7895    6065.6913    4368.4554    78.167633    902.85436 
  104000    253.92972   -161.97027   -128.91751   -161.97027            0     3283.815    17.976151    22.932332    19.519483  0.061405529   -7.2523733  -0.19590556    8046.6153    2976.9929    3686.1761    3188.2759   -468.41328     1322.546    334.66043 
  104500    256.02659   -163.41134   -130.08565   -163.41134            0    5462.9968    17.985024    22.626602    19.488063   0.50612782   -7.2854297   -0.0197358    7930.4718    3857.2854    6196.2604    6335.4447   -1585.1064     1205.185    236.85762 
  105000    268.07277   -163.35536   -128.46167   -163.35536            0    7847.2576    18.292582     22.54937    19.369699   0.50339754   -7.2369355  0.087676078    7989.7337    9743.5461    6860.4868    6937.7398    1692.7851    1715.9156   -2696.6539 
  105500    260.48188   -161.84402    -127.9384   -161.84402            0    5261.6634    18.437899    22.544743    19.364683   0.16735406   -7.0827614 -0.018341564    8049.4666    5690.6202    5804.4009     4289.969    -971.0774   -1784.1369    1431.5155 
  106000    257.05724    -163.0698   -129.60995    -163.0698            0    2868.7809    18.266019    22.517753    19.388343   -0.1045139   -6.8815104 -0.069273976    7974.6138   -2477.3833    3065.3286    8018.3974     3777.341    346.51094     129.3365 
  106500    252.62155   -162.12836   -129.24588   -162.12836            0    7855.8905    18.110976    22.605432    19.524082  -0.19097832   -6.7736619   0.01460764    7993.2848    9145.6553    7874.9598    6547.0564      773.799    841.15498    1968.0569 
  107000    251.53371   -162.37866   -129.63778   -162.37866            0    3176.7609    18.065961    22.657281    19.561559  -0.17296412   -6.7564638   0.16138083    8007.0462    8343.6957    120.37184    1066.2152     2339.599   -171.04573   -314.84076 
  107500     256.4092   -162.38671   -129.01121   -162.38671            0    5138.0281    18.131779    22.665865    19.376979  -0.13121036   -6.7808668   0.19501107    7963.4045    2418.7774    7134.5873    5860.7196    209.32599    1436.0463   -269.81535 
  108000    261.16447   -162.67242   -128.67795   -162.67242            0    4068.0504    18.260119    22.774974    19.285387  -0.09692548   -6.8399325    0.1146256     8020.286    6904.0694    4093.7633    1206.3187   -518.51962   -1877.1522    1644.6781 
  108500    270.46142   -163.17439   -127.96979   -163.17439            0    3903.0843    18.150594    22.809817    19.263591  0.079301553   -6.9523006  -0.01355047    7975.3529    3445.3779    2923.8095    5340.0656   -955.80929    28.841557   -2015.0518 
  109000    248.68212   -161.73947   -129.36977   -161.73947            0    6177.5118    17.976758    22.788408    19.531752   0.27526243   -7.0444886  -0.21281016    8001.4106    9740.8733    4709.2601    4082.4019   -867.42325   -843.91003    2125.3818 
  109500    256.29512   -162.43947   -129.07883   -162.43947            0    5111.7414    17.934904    22.664956    19.640737   0.32120814   -7.1576024  -0.22432153     7983.838    4723.6709    6796.3396    3815.2138    1901.9285    244.62777    1569.8111 
  110000    253.19094   -162.45031   -129.49372   -162.45031            0    1837.8138    18.238079     22.51673    19.469285   0.27836683   -7.2914571 -0.091508425    7995.2937    1276.7835    1556.0406    2680.6173   -2359.8988    1688.5276    745.48632 
  110500    258.75082    -164.7006   -131.02031    -164.7006            0    5189.5484    18.438418    22.435154    19.247739 -0.073482508   -7.2482369  0.070315371    7962.1879    4707.3645    6189.7047     4671.576     1787.711   -29.367101   -1406.8488 
  111000    260.77743   -163.04507   -129.10098   -163.04507            0    6951.8602    18.327079    22.507337    19.386357  -0.35380832   -7.0242672   0.17614322     7996.751    7372.7651    7549.6856    5933.1301    1781.0937    77.988387   -1208.4783 
  111500    266.74843   -164.27174   -129.55044   -164.27174            0    6598.4016    18.012173    22.649793    19.530203  -0.36330914   -6.7609833   0.16841933    7967.7759     6387.306    9589.6471    3818.2517   -330.74292    1467.0389   -2213.9151 
  112000     262.9351   -163.65767   -129.43273   -163.65767            0    4530.0186    17.961751     22.83694      19.5118   -0.1848892   -6.6781738   0.11351605    8003.5731    3817.3167    5280.0783    4492.6607     1945.473    1844.6077   -1660.1101 
  112500    256.95037   -164.20439   -130.75845   -164.20439            0    4376.8637    18.060284     22.83083    19.292364  0.068405408   -6.6903904   0.01349397    7954.8452    4485.5057    3935.4747    4709.6107   -3729.0259    1716.6391    4811.1778 
  113000    253.15794   -163.66293   -130.71064   -163.66293            0    4151.6733    18.185575    22.709868    19.221146   0.24394369   -6.8200051  -0.12197738      7938.18    2313.7966    4122.2815    6018.9419    2387.2774   -2872.7798   -866.76012 
  113500    258.41006   -163.20066   -129.56472   -163.20066            0    3824.3171    18.252088    22.647515     19.45125   0.24931687   -7.0286913  -0.17661468    8040.4551    2997.3178    4315.9739    4159.6596   -1760.9265   -826.81159   -850.57526 
  114000    265.08929   -163.93318   -129.42784   -163.93318            0    4092.7046    18.119259    22.476862    19.483478  0.080699363    -7.113945  -0.12436517    7934.9209    4689.4519    2315.8709    5272.7909    1469.2215   -1134.9215   -1688.6218 
  114500    264.97276    -162.7384   -128.24823    -162.7384            0    7830.9718    18.190386    22.559609    19.558517  -0.15764238   -7.2153903  0.043535031    8026.1893    8928.7114    9917.1989    4647.0051    4230.9578    972.16073    2908.3758 
  115000    267.50708   -163.64405     -128.824   -163.64405            0     7428.578    18.191507    22.624306    19.448097  -0.40076416   -7.1761461   0.28749608    8004.2576    7064.7527    7302.8005    7918.1807    4036.6015    2464.3168   -2315.5665 
  115500    261.52802   -162.48879     -128.447   -162.48879            0    5998.3237    18.121844    22.696127    19.272192  -0.46964028   -6.9705753    0.4024388     7926.569     9384.356    7521.5761     1089.039    2261.5254   -3922.2342   -637.91739 
  116000    258.05156   -164.16657   -130.57729   -164.16657            0    3610.0335    18.170559     22.94789     19.41141  -0.30735219   -6.6404006   0.26547556     8094.092    3127.7488    1425.3162    6277.0356   -1970.8863   -2465.4963   -1461.5308 
  116500    261.71474   -161.55744   -127.49135   -161.55744            0    10302.943    17.897878    22.752926    19.356403   0.04769892   -6.3121663  0.028441567    7882.4907    7760.0609     11139.68    12009.087    903.44867     476.9394    2510.9627 
  117000    248.33451   -163.83451   -131.51005   -163.83451            0    2750.6668    18.059499    22.799666    19.482202    0.3356408   -6.3651108  -0.15726731    8021.8075    4045.3546    2372.4552    1834.1907   -1916.7645    156.68828    1295.7731 
  117500     246.9428   -162.66945   -130.52615   -162.66945            0    4717.1258    18.142429    22.721291     19.41314   0.34903566   -6.5513218  -0.18426641    8002.4729    1737.0872    3530.1757    8884.1146    130.57371    595.79615    686.38538 
  118000    252.16219    -164.2074   -131.38471    -164.2074            0    7760.5975    18.142706    22.558892    19.382225   0.19635713   -6.7536927 -0.089385746    7932.7439    7074.3536    6969.3782    9238.0606    1620.1184   -4157.0941    -50.46374 
  118500    263.92308   -163.85598   -129.50244   -163.85598            0    3853.3173    18.173074    22.659977    19.508502 -0.013114715    -6.940875   0.04761427    8033.6288    1835.1581    3409.7624    6315.0315   -3822.9764    748.22241    3130.8515 
  119000     263.6167   -164.61905   -130.30539   -164.61905            0     5014.295    18.095025    22.566204    19.479559  -0.27030215   -7.0132946   0.14009331     7954.206    4607.1263    6028.5455    4407.2131     2923.944   -938.75642    1364.6467 
  119500    254.13052   -162.23843   -129.15954   -162.23843            0    4632.6724    18.122402    22.608487    19.414993  -0.34221187   -7.0879041   0.17866199    7954.7126    5259.7866     5022.691    3615.5396    402.31567   -1572.0143    2500.5129 
  120000    258.52441   -163.55632    -129.9055   -163.55632            0    5053.8583    18.254729    22.880103    19.416478   -0.2097302   -7.1068983   0.14225691    8109.6821    4778.2932    2426.4573    7956.8243     1306.088    2268.1531   -3054.9657 
  120500    261.84567    -163.3271   -129.24397    -163.3271            0    4170.5618    18.046881    22.713801    19.242588  0.039934169   -6.8679932 0.0012236506    7887.7918    2274.9728    2944.8072    7291.9053     1032.931   -972.28264   -501.71061 
  121000     261.9555   -164.48624   -130.38881   -164.48624            0    2666.7283    18.104784    22.816956    19.441683   0.26873828   -6.7702896   -0.0982917    8031.2825    3210.2592    3960.0736    829.85222   -1174.4815    2385.3517    1206.6537 
  121500    257.41764   -162.63078   -129.12402   -162.63078            0    9751.3803    18.086545    22.679127    19.546259   0.26777973   -6.6960648  -0.10457825    8017.6222    10214.966     10372.47    8666.7046    1461.5594   -91.933316    3451.5724 
  122000    256.12251   -161.23909   -127.90091   -161.23909            0    7313.6417    18.104876    22.450622    19.439558  0.061522849   -6.7049727 -0.0075541075    7901.5143    5849.7984     9524.807    6566.3197   -1306.1563    1208.9935   -1863.8154 
  122500    265.17006   -161.64964   -127.13378   -161.64964            0    4025.8308    18.304915    22.631364    19.518833  -0.13040942    -6.810953  0.091832157    8085.9727    4165.9174     4292.671     3618.904   -2612.9111   -1447.3834    1174.6378 
  123000    270.35782   -163.66794   -128.47683   -163.66794            0    3485.7379    18.210419    22.586791    19.381957  -0.23493633    -6.890963   0.13849389    7972.0884   -139.67715    4102.0966    6494.7942   -2575.2925   -724.21299   -2952.5365 
  123500    260.46096   -163.33203   -129.42913   -163.33203            0    5337.6005    18.057154    22.764509    19.331337  -0.27573641   -6.9648419   0.14441008    7946.3831      5617.47    7411.3804    2983.9511   -2746.6145    1321.6943    -2138.338 
  124000    267.66879      -164.08    -129.2389      -164.08            0    4299.7635    17.966649    23.141773    19.357979  -0.10288427   -7.1451797  0.087569739    8048.6625    3983.9347    2654.3198     6261.036    761.56229   -949.87743   -2928.2441 
  124500    271.40868   -163.47926   -128.15136   -163.47926            0    8564.7786    17.809206    23.206182    19.227091   0.21795762   -7.2348065 -0.085179621    7946.2425    7915.6676      10236.2    7542.4683    45.899324    565.68885    2271.8497 
  125000    261.44158    -161.5602   -127.52966    -161.5602            0    5701.5732    17.935793    23.186479    19.165257    0.5169788   -7.2436604  -0.29066354     7970.215     1297.214    6720.7869    9086.7188    -750.4992    1281.6868    3471.0658 
  125500    261.39512   -161.92783   -127.90335   -161.92783            0    2534.7715    18.234261    22.906224    19.335728   0.60820385   -7.1255894  -0.37097485    8076.1094    1506.1777     3216.582    2881.5548   -4009.9164    960.22402    2068.3899 
  126000    259.65789   -162.35747   -128.55911   -162.35747            0    6644.4755    18.207881    22.402873    19.415192   0.38282294   -6.7955406  -0.23723237    7919.6285    3957.1731    8799.1616    7177.0917    846.57914   -2328.1908    1883.2779 
  126500    254.33945   -164.21463   -131.10854   -164.21463            0    6603.9025    18.243918     22.43091    19.605922  0.090646474   -6.6150587 -0.067250894    8023.2861    9610.3806    5809.7149    4391.6118   -1844.4845   -915.12714   -2273.7789 
  127000    249.19901   -161.51668    -129.0797   -161.51668            0    8064.9253    18.126696    22.444734    19.524157   -0.1429647   -6.5377822   0.10896987    7943.3813    8649.8735    10860.961    4683.9409   -1860.6718    248.91979   -3167.3447 
  127500    253.44156   -162.37498   -129.38577   -162.37498            0     8269.479    18.111505    22.632774    19.543364   -0.2698109   -6.6467339   0.25623677     8011.091     10980.31    8713.5624    5114.5647    653.09832   -239.79116    955.21404 
  128000    255.93127   -162.68545   -129.37216   -162.68545            0    3716.9406    18.081377    22.828692    19.308706  -0.28478799   -6.8035924    0.2289566    7970.1353    4162.8051    4094.4523    2893.5645   -1821.3557   -7.5637025   -3688.2742 
  128500    263.63391   -163.62696   -129.31106   -163.62696            0    2802.8503    18.145854     22.95171    19.166725  -0.24209141   -6.9595592  0.042672126    7982.5269    2825.2932    1435.7514    4147.5063    548.63855   -1813.2184     2051.743 
  129000    268.42048   -162.88285    -127.9439   -162.88285            0    6789.5774    18.226106    22.858613    19.166391  -0.13158202   -7.1397702  -0.12403765    7985.1693    6559.6813    9533.0841    4275.9668    409.69354    4264.4788   -353.43982 
  129500    266.53496   -163.12063   -128.42712   -163.12063            0    5360.8995    18.117083    22.618776    19.377555   0.13419982   -7.1396049  -0.12622469    7940.6552    3647.2666    5536.4838     6898.948   -3092.6219   -291.50185   -1201.7913 
  130000    253.62429   -163.69028   -130.67728   -163.69028            0    2137.9628    18.138079    22.515495    19.666017   0.35978354   -7.0492352  0.037843799    8031.3617    769.29894    3105.8725    2538.7169   -420.03703    472.33847   -951.10293 
  130500    269.90719   -163.75369   -128.62123   -163.75369            0    8954.5451    18.122434    22.334126     19.55804   0.25804376   -6.8573293   0.10662538    7916.0916    6986.1389     11691.93    8185.5666   -1921.4817    570.33452    1350.3876 
  131000    251.17556   -163.66707   -130.97281   -163.66707            0    30.357795     18.28706     22.50555    19.471613 -0.035536438    -6.711412    0.1498064    8013.7436   -3769.3024    2844.4785    1015.8972    1132.5698   -673.45748   -998.06839 
  131500    250.08492   -163.63413   -131.08183   -163.63413            0    5276.5379    18.248594     22.64969    19.265572  -0.29549765   -6.5950301   0.12908894    7962.9426    6416.8966      4654.93     4757.787    1205.9962   -1988.5441    2533.6775 
  132000    257.35697    -163.3713   -129.87243    -163.3713            0    6215.5091     18.17025    22.762246    19.300568  -0.23530279   -6.6850234   0.13376944    7982.6319    5875.0029    6249.6327    6521.8916   -424.49014    38.890391   -433.52923 
  132500    269.24798   -163.03037   -127.98371   -163.03037            0    535.17264    18.014805    22.865035    19.415605 -0.061060839   -6.8326735   0.05845041    7997.4652    1138.1391    30.095782    437.28306    1214.7145   -974.48613   -367.29409 
  133000    262.40994   -161.59927   -127.44269   -161.59927            0    6698.7729    17.977102     22.94198    19.355651   0.16384142   -7.0096865   -0.1092967    7982.8571    9292.1274    3854.2489    6949.9423   -1219.2108   -2640.5388   -569.50197 
  133500    263.32423   -162.17154   -127.89595   -162.17154            0     6530.382    18.125647    22.901083    19.248883   0.26069103   -7.2050375  -0.24277527    7990.1526    5888.1289    7494.8585    6208.1584   -1776.3401    911.62978    154.90063 
  134000    254.13028   -164.82041   -131.74155   -164.82041            0    3094.5075    18.211908    22.625524    19.159113    0.1832648    -7.278203  -0.23652928    7894.5886    1349.9847    4284.9269    3648.6111   -423.30294    837.33211   -1541.1168 
  134500    255.46403    -163.3109   -130.05843    -163.3109            0    3211.6768    18.299283    22.353085    19.560598 -0.029062443   -7.2154398  0.013107947    8001.1733     3756.786    2828.1706    3050.0738    996.87188    893.40261   -1235.5529 
  135000    257.04786   -164.90504   -131.44641   -164.90504            0    4909.2223    18.168295    22.210525    19.781924  -0.19082789   -6.9540652   0.26229819    7982.5473    7001.6494    5388.4108    2337.6067   -493.54809    -228.1323    1490.7824 
  135500    253.52395   -162.81964    -129.8197   -162.81964            0    2771.2675    18.141226    22.244226    19.649807  -0.23347008   -6.7583331   0.27186715     7929.435    3238.9333    2791.0019    2283.8673   -497.81205    475.25445   -1487.4755 
  136000    272.37023   -164.53356    -129.0805   -164.53356            0    6744.7839    18.214452    22.609977    19.414236  -0.20662059   -6.6573517   0.10386155    7995.3326    8198.0232    4564.6664    7471.6621   -574.30256   -1208.0044    237.97591 
  136500    267.38292   -163.32081   -128.51692   -163.32081            0    3886.6255    18.127663    22.846283    19.221104 -0.042409003   -6.6450703 -0.057723718    7960.4145    5281.8011    2742.1672     3635.908    2775.1017    2855.9494    1807.6545 
  137000     260.2867   -162.74506   -128.86485   -162.74506            0    8489.5393    17.996627    22.961055    19.217612   0.18766031   -6.7104949  -0.06627287    7941.1312    8679.3507    8194.4662    8594.8011   -799.19083   -166.88596    1362.7186 
  137500    271.72962    -162.7632   -127.39352    -162.7632            0    3134.5058    18.030906    22.927754    19.357511   0.30533199   -6.8445747  0.015266594    8002.5532    4612.1821    3830.6674    960.66807   -2310.0658   -1694.7506    2675.6951 
  138000     262.2549   -163.43882   -129.30242   -163.43882            0    7462.2125    18.087086    22.787162    19.404697   0.20204087   -6.9606765    0.1429871     7997.711    8016.5455    8270.1907    6099.9014   -177.53756    193.83628   -850.34643 
  138500    255.36833   -163.12359   -129.88358   -163.12359            0    7459.2133    18.195006    22.506588    19.368347  -0.18836042   -7.1087991   0.10644301    7931.4836    9631.3536    6676.1125    6070.1737    15.422024    -572.7762    561.67184 
  139000    255.80028   -165.31737   -132.02114   -165.31737            0     3802.104    18.373822    22.377449    19.430088  -0.47286502   -7.2449198   0.10780153    7988.8607    372.53014    6104.5079     4929.274    2217.8631    815.12326    1521.9986 
  139500    257.84905     -164.234   -130.67109     -164.234            0    11054.333    18.224184    22.426164    19.457383  -0.37824879   -7.1484781   0.20046083    7952.2039    11173.997    10748.363    11240.638    1377.9086    553.75531   -3395.0972 
  140000     265.5836   -163.35838    -128.7887   -163.35838            0    7489.0986    18.083158    22.653761     19.53259 -0.014280146   -6.9988751   0.22489574    8001.5554    5170.9647    9500.7317    7795.5996    1696.1227    1644.8819   -376.38759 
  140500    265.99085   -162.32553   -127.70284   -162.32553            0     4633.859    18.016187    22.880028    19.432532   0.23036332   -6.8598093  0.045457408    8010.3009    4411.0558    2362.2114    7128.3097    -293.3484    816.74728   -4207.8856 
  141000    268.49911   -164.28931   -129.34013   -164.28931            0     5395.454    18.108412    22.778226      19.3052   0.27487904   -6.7534154  -0.21437675    7962.9607    2127.4311    8088.0677    5970.8632    1815.1222    2056.0437   -146.34842 
  141500     257.8069   -163.62681   -130.06939   -163.62681            0    929.62277    18.144227    22.741948    19.302268   0.11156073   -6.6781113  -0.33554056    7964.7929   -978.68654    1824.8039     1942.751    278.27386    510.17595    920.90492 
  142000    254.67772   -163.43596   -130.28585   -163.43596            0    4710.1612    18.216344    22.619035    19.442903 -0.085148726   -6.7092581  -0.17448898    8011.1783     4044.059    5510.8387     4575.586   -1696.8006    731.75329    760.18137 
  142500    259.15981   -161.88632   -128.15279   -161.88632            0    6746.9909    18.134831    22.452609    19.466045   -0.2165956   -6.8004778   0.20898034    7926.0726    6023.8516    8524.7773    5692.3437   -803.53478    1523.2437   -126.54699 
  143000    256.02275   -161.73325   -128.40806   -161.73325            0    5057.0658    18.185477    22.533292    19.542972  -0.24726108   -7.0293612   0.41639021    8008.2929    7254.5812    1814.2335    6102.3828    303.57584   -477.49187   -173.54031 
  143500    261.34384   -163.28797   -129.27016   -163.28797            0    2421.7629    18.237171    22.600786    19.467311  -0.22164188   -7.2501613   0.29898217    8023.9271    -8.146482    4014.0172     3259.418    1122.0004   -1393.8102   -1479.4496 
  144000     267.3891   -164.23412   -129.42942   -164.23412            0    6945.1294    18.138275    22.714568    19.234058  -0.09405943   -7.2836967  0.022246653    7924.4913     5164.003    6006.5497    9664.8354   -1210.5303   -503.81449   -2134.8201 
  144500    256.21581   -162.58677   -129.23645   -162.58677            0    2321.0383    18.113074    23.033647    19.299411    0.1321396   -7.1822146  -0.22989589      8051.91    1652.3029    1441.8917    3868.9204    -1377.346   -1024.6514   -828.00973 
  145000    264.98994   -162.44834   -127.95594   -162.44834            0    4243.2364    17.948569    22.912489    19.385303   0.24778166   -6.9648811  -0.22891424    7972.1358    6323.0337    3882.8344    2523.8409    352.80842    892.41657   -59.415005 
  145500    254.04538    -161.4843   -128.41649    -161.4843            0    2717.5461      18.0078     22.65823    19.512488    0.1320606   -6.7931604 -0.084363639    7961.5804    1381.3675    2919.0276    3852.2431    1630.6012   -1856.0632    1099.2629 
  146000    248.82364   -162.80709   -130.41897   -162.80709            0    7063.7431    18.105163    22.578777    19.632489 -0.047176705    -6.709927   0.12497301    8025.6132    8166.8685    3498.8989     9525.462    -995.4284   -3230.0325    2239.8084 
  146500    261.49391   -164.52328   -130.48594   -164.52328            0    3807.4787    18.165209    22.431424    19.501011  -0.24770222   -6.7314132   0.22985287    7946.1065    1947.5395    5347.8324    4127.0641   -1026.9008    642.26243     -2816.68 
[...]
  365000    259.81469   -163.33048   -129.51171   -163.33048            0    5410.4592     17.91263    22.880386    19.364356   0.14160669   -6.9200493  -0.14931565    7936.4405    5358.8785    6690.9735    4181.5254    2102.0583   -2286.3947    2882.6059 
  365500    260.11364    -163.6645   -129.80682    -163.6645            0    5368.5684    18.134438    22.587329    19.457877   0.10836923   -6.7560626  0.026825533    7970.1123    8603.1627    5108.0278    2394.5146    542.67509   -97.330622    1477.0683 
  366000    272.58841   -163.84029   -128.35883   -163.84029            0    3556.3158    18.288299    22.463281    19.424677 -0.089209906   -6.6349486   0.15178173    7979.9528    1803.0896    6470.8761    2394.9818   -583.85771   -1168.0855     2400.323 
  366500    260.34481   -163.39313   -129.50536   -163.39313            0    4587.3821    18.246476    22.452392     19.43192  -0.25864107   -6.5826963   0.16819886    7960.8111       3519.8    3656.7174    6585.6287   -617.86349    2217.2044   -36.517125 
  367000     262.6441   -163.91729   -129.73023   -163.91729            0    4379.0857    18.113221    22.614044    19.471549  -0.29671673    -6.654823    0.1081706     7975.803    420.68861    6411.5724     6304.996    1813.7333    576.49371    4731.6458 
  367500    262.80308   -163.25529   -129.04754   -163.25529            0    5890.7438    17.925314    22.748618    19.481763 -0.068845039   -6.8773569  0.060450885    7944.1977    9443.0117    5067.0393    3162.1805   -2196.2796    895.04951     28.36022 
  368000    259.99995     -162.487   -128.64411     -162.487            0    5832.7539    17.978594    22.957068    19.384317   0.18351146   -7.1537668 -0.025159817    8000.6019    6283.2748    5355.1084    5859.8785    1915.4055    2666.8305   -624.13975 
  368500    262.74478   -163.66147   -129.46131   -163.66147            0     5027.174    18.090657    22.981869    19.171167   0.30895846   -7.2911644  -0.17689009    7970.5493     5850.618    4759.8426    4471.0614   -1055.3324    2151.7055    1436.1041 
  369000    250.82753   -162.12455   -129.47559   -162.12455            0    6236.3846    18.286243    22.823785    19.132659   0.22629983   -7.2362641  -0.26536598    7985.2312    2769.2734    5631.4827    10308.398   -4803.5406    67.514264   -223.50372 
  369500    270.70785   -164.51631   -129.27963   -164.51631            0    5401.5534     18.13627    22.587749     19.40572 -0.040071955   -6.9151259  -0.13479577    7949.6992    7454.0377    2893.5569    5857.0656    879.81112    844.24571    -1121.932 
  370000    266.59568   -162.30844   -127.60702   -162.30844            0    4845.3899    18.121171    22.419028    19.686938   -0.2538491   -6.6563241   0.10339438    7997.9968    6371.7398    5740.9838    2423.4461    650.74173   -1729.0087   -963.34118 
  370500    256.23262   -162.95325   -129.60074   -162.95325            0    6540.0092    18.086534    22.507619     19.57132   -0.2750054   -6.5266339    0.2618464    7967.1873    7173.9827    6318.2549    6127.7901    2508.7282   -256.79976   -281.85371 
  371000    255.53376   -163.59186   -130.33031   -163.59186            0    4758.7261    18.136455    22.570203     19.38467  -0.18921835   -6.6078115   0.24617809    7934.9878    4708.6462    3765.9423    5801.5897    1206.4321   -2011.8328   -1079.4811 
  371500    250.79066   -163.52259   -130.87843   -163.52259            0    3645.6105    18.199297    22.751978    19.330546 -0.051460852   -6.8119259   0.10814843     8004.199    623.52919    3194.2781    7119.0242    1021.4877    324.11485     -4048.58 
  372000    248.87789   -162.32006   -129.92488   -162.32006            0    6079.2978    18.058227    22.804166    19.305825  0.057189471   -6.9964741  -0.04496054    7950.1927    7419.4292    7835.3737    2983.0904    168.03348     -314.127    1034.8712 
  372500    262.79388    -164.7973   -130.59074    -164.7973            0    4193.3837     18.03827    22.820945    19.356891   0.15045363   -7.2104258 -0.076584581    7968.2712    2590.6227    4802.0687    5187.4598    1973.8381    704.83194   -1563.9275 
  373000    246.16387   -165.35229   -133.31038   -165.35229            0    8503.8413    18.070141    22.733609    19.373644    0.2323038   -7.3146947 -0.055009178    7958.6836    8108.2505    9788.6503    7614.6232    -1815.208    1107.9301    3133.3113 
  373500    260.59053   -165.34238   -131.42262   -165.34238            0    3443.1629    18.154192    22.526901    19.276988   0.17673332   -7.2947526  0.085855338    7883.4724    3629.1006    3606.3611     3094.027    2964.0312    953.19553    -3022.777 
  374000    260.79308   -162.90528   -128.95916   -162.90528            0    3194.8793    18.343877    22.645925    19.440304  -0.20189793    -7.072778   0.19059324    8075.7757    3659.1682    1273.4854    4651.9844   -1605.7195   -1001.3574   -3373.0104 
  374500    276.43411   -163.15558   -127.17355   -163.15558            0    7930.1146    18.159413    22.460497    19.443088  -0.45037631   -6.7014576   0.19587248    7930.2409    8534.3482    7361.8564    7894.1391   -1224.2529    -747.8751    -2406.942 
  375000    258.07614   -160.80158   -127.20911   -160.80158            0    594.76111     18.10546    22.611421    19.579447  -0.52343718    -6.479418    0.0878652    8015.6334    1876.2391   -324.14276    232.18705    2435.0498    707.58454    1422.7777 
  375500    262.19873    -163.2732   -129.14411    -163.2732            0    4201.4494    18.036657     22.71831    19.448999  -0.36721747   -6.4595282 -0.051562545     7969.468    5471.0694    3081.0291    4052.2499    248.50183   -982.97305    613.24776 
  376000    264.60591   -163.43718   -128.99476   -163.43718            0    6268.8594    18.066128    22.790356    19.285687   0.11712763    -6.569829  -0.09758788    7940.5632    5868.9407    5876.9662    7060.6714   -600.40657    -1118.894    34.065339 
  376500    278.10704   -163.60538   -127.40559   -163.60538            0    3431.6106    18.116968    22.920829    19.257851   0.43108756   -6.7697546 -0.087763209    7996.9365    576.62907    4301.6422    5416.5606   -1914.2175   -633.65679   -2103.6339 
  377000    257.12546   -164.69305   -131.22433   -164.69305            0    7512.8709    18.148783    22.782376    19.330717   0.32038891   -7.0069493  -0.12204452    7992.7177    12552.089    4746.7173    5239.8067   -5001.5787    -1628.978   -3062.2754 
  377500    251.16559    -163.0348   -130.34184    -163.0348            0    7691.2739    18.038166    22.588725    19.462067 -0.020657723   -7.1037003  -0.12511636    7929.9975     10652.46    6574.2241    5847.1375     932.6127    1643.9278    2457.9779 
  378000    261.39549   -163.70276   -129.67822   -163.70276            0    5532.0722    18.059719    22.545005    19.594183  -0.31255857   -7.1641538 -0.017708791    7977.8982    6299.9385    3618.2211    6678.0569    2480.8566   -829.52713    243.68165 
  378500    251.09586    -164.3608   -131.67692    -164.3608            0    5554.7675    18.181183    22.536891    19.486807  -0.36045133   -7.1081838   0.15962645    7984.6671    6127.0046    2617.8521    7919.4457    3014.7116   -726.14922    2081.8873 
  379000    249.78291   -161.75628    -129.2433   -161.75628            0    5853.5486    18.267366    22.568845    19.259454  -0.20625177   -6.9419676   0.32680745    7940.1596    10709.053    3294.5372    3557.0554    706.71568   -977.80713   -372.95385 
  379500    256.17202   -163.86524   -130.52062   -163.86524            0    5389.5918    18.248515    22.717507    19.271121  -0.01369809   -6.7369748   0.25862927    7989.0507    6679.1069     6037.508    3452.1605    2500.6559    2134.7604    186.57166 
  380000    264.95346    -165.1127   -130.62504    -165.1127            0    653.06904    18.048652    22.826546    19.344062   0.13039233   -6.5342533 0.0046666177    7969.5286    2583.0158    105.86549   -729.67415   -1523.2759   -4298.6602   -860.15517 
  380500    250.34371   -163.72562   -131.13964   -163.72562            0    4200.4863    17.886345     22.84752    19.367783   0.21817519   -6.4884016  -0.22871885    7914.8118    4911.4403     6338.641    1351.3775    402.86889   -1075.3588    -248.7071 
  381000    263.35138   -164.81959   -130.54046   -164.81959            0    4515.5339     18.01791    22.791573    19.425833    0.2096419   -6.7474232  -0.21228531    7977.3444    6459.4336    4386.1154    2701.0526    893.99898    580.38576   -1682.8004 
  381500    269.40816   -161.32679   -126.25928   -161.32679            0    4060.4474     18.36854    22.616332    19.368585   0.13320891   -7.2288082 -0.013422741    8046.2718    3372.3309    5653.1979    3155.8134   -3154.6237   -2462.5553   -817.08895 
  382000    259.87583   -162.69407   -128.86735   -162.69407            0    5763.2213    18.408442    22.354326    19.337308 -0.019840841   -7.5080542   0.19165141    7957.4631    3638.0136    6786.5448    6865.1054   -1468.3603    2019.2375    -1391.508 
  382500    272.71977   -162.27853   -126.77997   -162.27853            0    3695.6361    18.252972    22.404205    19.532432  -0.15339937   -7.4284295   0.18799345    7987.6578    6165.8086    6184.4341   -1263.3344    15.191691    1453.9913    -1786.207 
  383000     267.6734   -162.99144   -128.14974   -162.99144            0     5806.155    18.049591    22.586292    19.517974  -0.11889816   -7.1776211  0.075459291    7956.9575    3745.4467    5359.7737    8313.2447   -2261.2889    2805.7535    352.52922 
  383500    270.30352   -162.14202   -126.95797   -162.14202            0    6390.2513    18.082709    22.746463    19.429328 -0.050476613   -6.9781735 -0.024099611    7991.6259    9640.8513    5712.4108    3817.4916   -409.24252    842.34738    889.92577 
  384000    259.44517   -163.09559   -129.32492   -163.09559            0    4858.2477    18.178417    22.873322    19.310824  0.022276868   -6.7844226 -0.034602694    8029.4559    4342.1472    6006.9561    4225.6397    1634.5434   -177.29419    3728.5728 
  384500    259.26735     -163.216   -129.46847     -163.216            0    5775.5102    18.134774    22.675963    19.243949  0.097713622   -6.6325181 -0.023288815    7913.5635    5244.5042    8095.1044     3986.922    408.86604    971.70372    1743.3947 
  385000    254.78978    -164.4102    -131.2455    -164.4102            0    4173.8166    18.153926    22.703603    19.450838  0.033610787   -6.6279908  0.058451675    8016.8481     3813.285    5586.1845    3121.9803    383.49701    -1380.216   -154.24351 
  385500    250.94071   -164.01717   -131.35348   -164.01717            0    3933.4416    18.007541      22.5873    19.560203 -0.063405205   -6.6800904   0.20684275    7955.9509    3856.2825     5354.988    2589.0542   -189.61445    3224.2405   -3055.1695 
  386000    258.67599   -163.56804   -129.89748   -163.56804            0    8482.7606    18.050006    22.591445    19.494765  -0.16576251   -6.8585485   0.25993695    7949.4918    11621.669    8270.6985    5555.9146    1461.7561   -1377.0058   -2428.8485 
  386500    264.26996   -162.57263   -128.17394   -162.57263            0    5736.8804    18.236797    22.914295    19.339062  -0.22891445   -7.1584076   0.18972378    8081.4715    3483.2702    4968.7774    8758.5937    1217.3352    443.60261   -1157.1754 
  387000     262.8308   -164.01006    -129.7987   -164.01006            0    4984.0893    18.109353    22.874226    19.089665  -0.18041184    -7.261257 0.0064203289    7907.6536    3770.0771    3996.6201    7185.5707      3105.04    89.780604   -524.14533 
  387500    261.74906   -164.12095   -130.05039   -164.12095            0    6384.2536    18.075041    23.037149    19.295019  0.029031827    -7.254941  -0.12825975    8034.3959    6482.0301    5045.2829    7625.4478    1652.8356    3802.2388    5148.8025 
  388000    241.97338   -163.63098   -132.13453   -163.63098            0    6524.6443    18.002313    22.825925    19.418559   0.30230344   -7.1338252   -0.1046267    7979.4635    8879.1459    4719.4494    5975.3377   -2441.7285   -457.68797   -163.66584 
  388500    248.06462   -163.85904   -131.56971   -163.85904            0    5208.5132    18.072855    22.530545    19.390846   0.36983789    -6.959595  0.022180094    7895.7832    988.72091    7545.5184    7091.3002   -406.29706   -210.56326   -129.10491 
  389000    250.37432   -164.08424   -131.49427   -164.08424            0    3385.5831    18.269435    22.509969    19.502754   0.12407108   -6.8189736 0.0094171953    8020.3987    2005.8193    2831.3787    5319.5513    1592.8242    761.26919    679.16238 
  389500    257.41116   -164.89475   -131.38883   -164.89475            0    5321.8419    18.226722    22.362027    19.500132  -0.22183529   -6.6765765 -0.007717578    7947.9894    2576.6229    6225.1122    7163.7906     773.2995    1038.0333    117.22069 
  390000    254.81643   -164.76277    -131.5946   -164.76277            0    3301.6939    18.126016    22.518817    19.517879  -0.33236834   -6.5967184   0.09439007    7966.7382    4438.6375    2720.9598    2745.4845   -963.01522    995.27785    -1110.078 
  390500    266.35362   -163.68215   -129.01224   -163.68215            0    4535.9787    18.111716    22.692528    19.485017  -0.25191489   -6.6713506   0.13752522    8008.3539    1158.9209    5291.4741    7157.5412    1099.8511   -2382.5368    2533.3624 
  391000    266.74449   -162.66901   -127.94822   -162.66901            0     3770.868    18.062018    22.836226    19.322802 -0.060423087   -6.8336085  0.037981263    7970.0436    682.77882    7702.8423    2926.9828     2126.253    3142.9493    1664.2931 
  391500    262.87072   -160.63314   -126.41659   -160.63314            0    4287.7389    18.196203     22.95811    19.238719   0.21672943   -7.0859095   -0.1239324    8036.9828    1455.3951    5352.7423    6055.0791   -1049.7421    1277.8608   -3805.2993 
  392000    251.94136   -164.60581   -131.81187   -164.60581            0    1308.0714    18.185751    22.736554    19.172138   0.43107565   -7.3067794  -0.22218108    7927.3207    4317.8122   -322.54695    -71.05111    1947.2416    812.07903    2257.1219 
  392500    253.51055   -164.80298   -131.80479   -164.80298            0    5608.9777    18.146336    22.627559    19.487191   0.44870384   -7.4754956  -0.15985443    8001.5826    5720.4045    4704.4772    6402.0515   -2388.5386    396.50428   -638.67646 
  393000    269.67265   -163.48687   -128.38494   -163.48687            0    3555.3395    18.181344     22.33274    19.787561   0.12806371    -7.505351  0.054266596    8034.5262    6600.6822    2719.8298    1345.5064   -167.10363    352.97065   -1066.9021 
  393500    280.22203   -162.83123   -126.35614   -162.83123            0    3032.6564     18.25218    22.227899    19.644753  -0.33425636   -7.3386128   0.23011747    7970.0254     5099.921    2901.5781    1096.4701   -1284.3428    80.279179   -2489.1359 
  394000    257.46403   -163.64346   -130.13067   -163.64346            0    2835.2585    18.299166    22.431349     19.50793  -0.46319457   -7.0933208   0.26990474    8007.5172    1138.2547     4156.086    3211.4348    962.48972   -607.26056   -2742.0186 
  394500    249.76103   -163.25338   -130.74325   -163.25338            0    2917.0048    18.098826    22.651034    19.414171  -0.33028537   -6.8468542   0.24260268    7958.9776    549.01733    1339.6536    6862.3436    265.38225   -820.55787   -590.68967 
  395000    258.59912   -163.02844    -129.3679   -163.02844            0    4829.5474    18.046563    22.882328    19.420277 -0.097186344   -6.7167359   0.11573477    8019.5526    3796.9302    5083.9768    5607.7353    2066.9954   -252.14408    2354.1516 
  395500     260.6864   -164.55805   -130.62582   -164.55805            0    4263.7391    18.021155     22.81341    19.316842   0.10720839   -6.7174923 -0.014578385    7941.6173    3396.5059    5840.5489    3554.1625    1685.5832    761.79705   -188.50698 
  396000    252.77091    -164.3892   -131.48729    -164.3892            0     2971.672    18.120687    22.856133    19.286262   0.19709675   -6.8037879  -0.13340333    7987.7687    183.22937    2525.6678    6206.1187    753.09141   -34.378078   -1035.5386 
  396500     247.5368   -163.81458   -131.59396   -163.81458            0    6833.7591    18.178083    22.806605    19.220744   0.10444887   -6.9298054  -0.13868084    7968.5426    8150.3768    6530.2349    5820.6656    3145.5074   -979.04792    4208.7603 
  397000    254.44911   -163.29819   -130.17783   -163.29819            0    5882.6936    18.166198    22.688729    19.341733 -0.099837079   -7.1559663  -0.04276459    7972.0421    6879.6494    5224.7761    5543.6552   -683.72007    768.30747    1224.6548 
  397500    266.13982   -163.81928    -129.1772   -163.81928            0    4410.2306    18.178049    22.493631    19.562267  -0.31227761    -7.343822   0.14219473    7998.8216   -63.920828    7270.1822    6024.4305    488.47503    480.07549   -1042.5451 
  398000    257.07956   -163.70887   -130.24612   -163.70887            0    9431.7331    18.149964    22.356729    19.509945  -0.35325349   -7.3542655   0.28034888    7916.6249    5674.9091     11820.24     10800.05    4055.5798     1512.138     3407.763 
  398500    263.62214   -162.89931   -128.58494   -162.89931            0    3048.7256    18.286428    22.608721    19.489661  -0.20218438   -7.1852172   0.27549037    8057.6642    2486.9472    3134.8771    3524.3526    108.97602    2684.5413   -504.27949 
  399000    254.56138   -166.46698     -133.332   -166.46698            0    3337.4148    18.188184    22.765793    19.186543  0.036592584   -6.8283947  0.055017878    7944.5421     2426.869    1271.8693    6313.5061   -996.04248    3.5177728    1522.1715 
  399500    266.07079   -164.94858   -130.31549   -164.94858            0    5749.3463    18.122022    22.938734    19.203285   0.13368595   -6.5622692  -0.10560795    7982.7333    2276.8913    6044.3221    8926.8255    2837.8698    884.49668   -327.50459 
  400000    252.05974   -165.01947   -132.21012   -165.01947            0    2184.3239    17.978637    22.855205    19.342449   0.10740232   -6.4948907  -0.14459343    7947.9175    4715.1251    542.23403    1295.6127   -1760.3065   -1358.9801    2705.6238 
Loop time of 2561.66 on 1 procs for 400000 steps with 1008 atoms

Performance: 6.746 ns/day, 3.558 hours/ns, 156.149 timesteps/s
71.8% CPU use with 1 MPI tasks x 1 OpenMP threads

MPI task timing breakdown:
Section |  min time  |  avg time  |  max time  |%varavg| %total
---------------------------------------------------------------
Pair    | 2201.6     | 2201.6     | 2201.6     |   0.0 | 85.95
Bond    | 0.073618   | 0.073618   | 0.073618   |   0.0 |  0.00
Neigh   | 327.52     | 327.52     | 327.52     |   0.0 | 12.79
Comm    | 11.454     | 11.454     | 11.454     |   0.0 |  0.45
Output  | 1.9846     | 1.9846     | 1.9846     |   0.0 |  0.08
Modify  | 17.375     | 17.375     | 17.375     |   0.0 |  0.68
Other   |            | 1.605      |            |       |  0.06

Nlocal:        1008.00 ave        1008 max        1008 min
Histogram: 1 0 0 0 0 0 0 0 0 0
Nghost:        5056.00 ave        5056 max        5056 min
Histogram: 1 0 0 0 0 0 0 0 0 0
Neighs:         0.00000 ave           0 max           0 min
Histogram: 1 0 0 0 0 0 0 0 0 0
FullNghs:      270156.0 ave      270156 max      270156 min
Histogram: 1 0 0 0 0 0 0 0 0 0

Total # of neighbors = 270156
Ave neighs/atom = 268.01190
Ave special neighs/atom = 0.0000000
Neighbor list builds = 40000
Dangerous builds not checked

unfix		3
unfix		2

write_data	data.final.${pid}
write_data	data.final.0
System init for write_data ...

write_restart   restart.lmp.${pid}
write_restart   restart.lmp.0
System init for write_restart ...
Total wall time: 0:42:56
