LAMMPS data file via MDAnalysis

        2592  atoms
           0  bonds
           0  angles
           0  dihedrals
           0  impropers

           2  atom types
           0  bond types
           0  angle types
           0  dihedral types
           0  improper types

0.000000 31.138000 xlo xhi
0.000000 21.471905 ylo yhi
0.000000 32.195839 zlo zhi
-9.185133 -8.706445 10.406223 xy xz yz


Masses

1 1.008000
2 15.999000

Atoms

1 0 1 0.000000 9.925000 2.447000 2.117000
2 0 2 0.000000 9.098000 2.538000 2.550000
3 0 2 0.000000 10.117000 1.495000 2.127000
4 0 1 0.000000 8.968000 23.987000 8.402000
5 0 2 0.000000 8.571000 23.114000 8.470000
6 0 2 0.000000 17.951000 2.815000 7.468000
7 0 1 0.000000 -3.741000 11.097000 12.207000
8 0 2 0.000000 -3.971000 11.955000 11.855000
9 0 2 0.000000 -2.802000 11.243000 12.205000
10 0 1 0.000000 17.101999 17.455999 8.443000
11 0 2 0.000000 18.017000 17.261000 8.662000
12 0 2 0.000000 16.454000 17.290001 9.204000
13 0 1 0.000000 9.730000 8.649000 8.276000
14 0 2 0.000000 9.321000 9.354000 7.693000
15 0 2 0.000000 9.944000 7.952000 7.670000
16 0 1 0.000000 -7.525000 18.364000 4.176000
17 0 2 0.000000 -7.546000 17.754000 3.392000
18 0 2 0.000000 -7.647000 19.235001 3.792000
19 0 1 0.000000 17.580000 9.719000 7.340000
20 0 2 0.000000 18.500999 9.611000 7.562000
21 0 2 0.000000 17.115999 9.522000 8.153000
22 0 1 0.000000 21.465000 11.787000 12.928000
23 0 2 0.000000 21.982000 11.036000 12.484000
24 0 2 0.000000 20.569000 11.466000 13.078000
25 0 1 0.000000 0.711000 25.728001 15.034000
26 0 2 0.000000 0.699000 25.860001 14.117000
27 0 2 0.000000 1.443000 26.278999 15.349000
28 0 1 0.000000 8.506000 21.778000 2.372000
29 0 2 0.000000 8.921000 22.077999 3.201000
30 0 2 0.000000 7.599000 21.469000 2.709000
31 0 1 0.000000 1.050000 13.798000 8.934000
32 0 2 0.000000 0.986000 13.533000 9.860000
33 0 2 0.000000 1.756000 14.461000 8.959000
34 0 1 0.000000 14.853000 13.651000 13.515000
35 0 2 0.000000 14.138000 12.993000 13.340000
36 0 2 0.000000 14.432000 14.405000 13.873000
37 0 1 0.000000 18.631001 17.216999 15.185000
38 0 2 0.000000 18.072001 16.445999 14.945000
39 0 2 0.000000 18.841999 17.614000 14.321000
40 0 1 0.000000 11.146000 18.533001 14.828000
41 0 2 0.000000 10.441000 18.961000 14.280000
42 0 2 0.000000 11.637000 17.969999 14.281000
43 0 1 0.000000 17.253000 12.264000 6.574000
44 0 2 0.000000 17.865999 12.029000 5.862000
45 0 2 0.000000 17.434999 11.465000 7.131000
46 0 1 0.000000 15.423000 22.868000 15.816000
47 0 2 0.000000 15.386000 22.117001 15.251000
48 0 2 0.000000 15.330000 22.445000 16.659000
49 0 1 0.000000 -2.491000 6.928000 15.429000
50 0 2 0.000000 -2.347000 7.833000 15.104000
51 0 2 0.000000 -1.994000 6.991000 16.304001
52 0 1 0.000000 12.712000 8.689000 11.048000
53 0 2 0.000000 13.459000 8.600000 11.663000
54 0 2 0.000000 11.937000 8.436000 11.598000
55 0 1 0.000000 11.291000 26.122000 15.319000
56 0 2 0.000000 10.316000 26.282000 15.276000
57 0 2 0.000000 11.461000 25.382999 14.660000
58 0 1 0.000000 17.885000 5.142000 15.293000
59 0 2 0.000000 17.726999 5.303000 14.384000
60 0 2 0.000000 7.856000 26.372000 15.680000
61 0 1 0.000000 -3.609000 25.250000 14.109000
62 0 2 0.000000 -4.017000 24.412001 13.998000
63 0 2 0.000000 -3.994000 25.606001 14.894000
64 0 1 0.000000 14.274000 3.321000 0.589000
65 0 2 0.000000 14.488000 2.563000 0.016000
66 0 2 0.000000 14.948000 3.270000 1.250000
67 0 1 0.000000 -4.460000 24.400000 16.658001
68 0 2 0.000000 -5.093000 24.195000 15.960000
69 0 2 0.000000 -4.339000 25.351000 16.752001
70 0 1 0.000000 25.033001 7.915000 12.174000
71 0 2 0.000000 25.452999 7.562000 11.355000
72 0 2 0.000000 25.379000 7.411000 12.950000
73 0 1 0.000000 -2.293000 20.336000 8.278000
74 0 2 0.000000 -1.801000 19.774000 7.618000
75 0 2 0.000000 -2.978000 19.815001 8.669000
76 0 1 0.000000 16.056000 10.987000 3.011000
77 0 2 0.000000 15.634000 11.696000 3.518000
78 0 2 0.000000 16.377001 11.387000 2.190000
79 0 1 0.000000 21.438999 11.666000 4.562000
80 0 2 0.000000 21.972000 12.067000 5.287000
81 0 2 0.000000 20.697001 12.282000 4.435000
82 0 1 0.000000 -0.872000 2.980000 0.554000
83 0 2 0.000000 -0.489000 2.270000 1.027000
84 0 2 0.000000 -9.558000 13.083000 31.837999
85 0 1 0.000000 -0.883000 12.572000 14.499000
86 0 2 0.000000 -1.025000 12.032000 13.655000
87 0 2 0.000000 -0.866000 13.485000 14.153000
88 0 1 0.000000 -2.462000 13.691000 4.505000
89 0 2 0.000000 -1.630000 13.963000 4.091000
90 0 2 0.000000 -2.198000 13.712000 5.444000
91 0 1 0.000000 22.900000 16.611000 6.550000
92 0 2 0.000000 23.052999 17.099001 5.721000
93 0 2 0.000000 -7.496000 16.045000 6.635000
94 0 1 0.000000 -4.345000 10.129000 9.451000
95 0 2 0.000000 -3.942000 10.352000 10.265000
96 0 2 0.000000 -4.710000 9.261000 9.605000
97 0 1 0.000000 -0.594000 8.920000 14.680000
98 0 2 0.000000 0.195000 8.365000 14.691000
99 0 2 0.000000 -0.503000 9.436000 15.506000
100 0 1 0.000000 -1.714000 13.150000 11.108000
101 0 2 0.000000 -2.224000 13.968000 11.033000
102 0 2 0.000000 -1.552000 12.787000 10.215000
103 0 1 0.000000 8.186000 12.649000 17.452000
104 0 2 0.000000 7.621000 12.539000 18.222000
105 0 2 0.000000 8.349000 13.588000 17.367001
106 0 1 0.000000 2.752000 12.078000 13.129000
107 0 2 0.000000 2.849000 11.407000 13.821000
108 0 2 0.000000 3.187000 11.672000 12.369000
109 0 1 0.000000 6.171000 5.378000 1.971000
110 0 2 0.000000 6.402000 5.277000 2.913000
111 0 2 0.000000 6.803000 6.059000 1.693000
112 0 1 0.000000 5.805000 8.069000 11.208000
113 0 2 0.000000 5.586000 8.956000 10.764000
114 0 2 0.000000 6.648000 7.808000 10.894000
115 0 1 0.000000 2.339000 9.253000 2.128000
116 0 2 0.000000 3.122000 8.611000 2.185000
117 0 2 0.000000 1.484000 8.934000 2.079000
118 0 1 0.000000 -5.427000 19.430000 5.694000
119 0 2 0.000000 -5.964000 18.917000 5.085000
120 0 2 0.000000 -4.629000 18.938999 5.812000
121 0 1 0.000000 27.951000 4.854000 1.539000
122 0 2 0.000000 26.981001 4.849000 1.473000
123 0 2 0.000000 28.167999 5.372000 2.345000
124 0 1 0.000000 13.833000 6.375000 7.170000
125 0 2 0.000000 14.077000 6.908000 6.386000
126 0 2 0.000000 13.206000 5.799000 6.699000
127 0 1 0.000000 -0.959000 3.599000 9.640000
128 0 2 0.000000 -1.221000 2.955000 8.978000
129 0 2 0.000000 -1.639000 4.306000 9.440000
130 0 1 0.000000 14.879000 22.860001 8.184000
131 0 2 0.000000 14.739000 22.054001 7.665000
132 0 2 0.000000 14.101000 23.052999 8.686000
133 0 1 0.000000 15.085000 6.528000 12.763000
134 0 2 0.000000 15.391000 7.224000 13.377000
135 0 2 0.000000 15.527000 5.697000 12.915000
136 0 1 0.000000 19.306000 13.015000 1.359000
137 0 2 0.000000 19.976999 13.715000 1.055000
138 0 2 0.000000 18.452000 13.404000 1.287000
139 0 1 0.000000 -4.870000 15.252000 3.957000
140 0 2 0.000000 -4.101000 14.692000 4.090000
141 0 2 0.000000 -4.550000 16.077999 3.553000
142 0 1 0.000000 14.104000 12.663000 8.425000
143 0 2 0.000000 14.980000 12.615000 8.835000
144 0 2 0.000000 13.774000 11.769000 8.646000
145 0 1 0.000000 10.131000 21.302999 9.590000
146 0 2 0.000000 10.925000 21.108999 9.027000
147 0 2 0.000000 9.371000 21.438000 9.007000
148 0 1 0.000000 16.056999 8.366000 14.796000
149 0 2 0.000000 16.164000 7.898000 15.634000
150 0 2 0.000000 16.978001 8.556000 14.494000
151 0 1 0.000000 3.002000 15.585000 8.522000
152 0 2 0.000000 3.711000 15.901000 9.095000
153 0 2 0.000000 3.441000 15.444000 7.656000
154 0 1 0.000000 6.684000 12.235000 14.930000
155 0 2 0.000000 5.766000 12.590000 14.811000
156 0 2 0.000000 7.078000 12.645000 15.690000
157 0 1 0.000000 3.593000 24.466000 16.018999
158 0 2 0.000000 3.562000 25.440001 16.132999
159 0 2 0.000000 2.982000 24.362000 15.268000
160 0 1 0.000000 19.073999 10.042000 0.648000
161 0 2 0.000000 10.503000 20.027000 31.972000
162 0 2 0.000000 19.889999 9.783000 1.107000
163 0 1 0.000000 16.799000 14.176000 2.314000
164 0 2 0.000000 16.000999 14.507000 1.869000
165 0 2 0.000000 16.371000 14.073000 3.159000
166 0 1 0.000000 14.622000 22.532000 4.739000
167 0 2 0.000000 15.381000 21.988001 5.096000
168 0 2 0.000000 23.716000 1.789000 5.387000
169 0 1 0.000000 2.008000 17.695999 3.944000
170 0 2 0.000000 1.220000 17.719000 3.374000
171 0 2 0.000000 2.037000 16.790001 4.366000
172 0 1 0.000000 23.358999 3.217000 2.151000
173 0 2 0.000000 23.778000 3.696000 2.860000
174 0 2 0.000000 22.465000 2.885000 2.405000
175 0 1 0.000000 23.235001 9.864000 4.076000
176 0 2 0.000000 22.705000 10.725000 4.047000
177 0 2 0.000000 23.757999 9.903000 3.276000
178 0 1 0.000000 10.745000 13.749000 4.863000
179 0 2 0.000000 11.033000 12.860000 4.992000
180 0 2 0.000000 11.411000 14.183000 4.313000
181 0 1 0.000000 -0.234000 16.268999 14.776000
182 0 2 0.000000 -1.076000 16.438999 15.190000
183 0 2 0.000000 0.382000 16.997999 14.678000
184 0 1 0.000000 0.447000 0.599000 1.051000
185 0 2 0.000000 30.959999 0.208000 0.404000
186 0 2 0.000000 1.280000 0.525000 0.584000
187 0 1 0.000000 2.384000 21.655001 8.012000
188 0 2 0.000000 2.162000 21.235001 8.873000
189 0 2 0.000000 3.300000 21.857000 7.834000
190 0 1 0.000000 10.568000 22.260000 12.261000
191 0 2 0.000000 9.924000 22.917000 12.574000
192 0 2 0.000000 10.386000 22.099001 11.356000
193 0 1 0.000000 4.343000 3.366000 5.328000
194 0 2 0.000000 3.722000 3.688000 5.999000
195 0 2 0.000000 5.126000 3.904000 5.446000
196 0 1 0.000000 25.125000 8.513000 6.653000
197 0 2 0.000000 25.802999 7.869000 6.931000
198 0 2 0.000000 25.003000 8.262000 5.670000
199 0 1 0.000000 6.982000 9.482000 15.089000
200 0 2 0.000000 7.015000 9.377000 16.062000
201 0 2 0.000000 6.681000 10.416000 15.018000
202 0 1 0.000000 25.374001 5.231000 1.842000
203 0 2 0.000000 24.587000 5.306000 1.369000
204 0 2 0.000000 25.148001 4.819000 2.680000
205 0 1 0.000000 -7.271000 12.993000 18.482000
206 0 2 0.000000 23.181000 12.307000 18.583000
207 0 2 0.000000 -7.446000 13.473000 17.705000
208 0 1 0.000000 -9.200000 24.316000 15.163000
209 0 2 0.000000 -9.542000 23.490000 14.740000
210 0 2 0.000000 -8.271000 24.068001 15.199000
211 0 1 0.000000 3.705000 19.223000 6.511000
212 0 2 0.000000 2.978000 18.740999 6.042000
213 0 2 0.000000 3.487000 19.059000 7.470000
214 0 1 0.000000 9.403000 9.737000 13.912000
215 0 2 0.000000 8.629000 9.893000 14.472000
216 0 2 0.000000 10.082000 10.231000 14.331000
217 0 1 0.000000 15.564000 5.906000 2.217000
218 0 2 0.000000 15.821000 5.415000 1.449000
219 0 2 0.000000 14.659000 5.609000 2.439000
220 0 1 0.000000 -4.362000 19.568001 14.272000
221 0 2 0.000000 -3.603000 20.157000 14.374000
222 0 2 0.000000 -4.978000 19.872999 13.634000
223 0 1 0.000000 9.233000 5.190000 3.009000
224 0 2 0.000000 8.890000 5.411000 2.144000
225 0 2 0.000000 8.907000 4.330000 3.267000
226 0 1 0.000000 19.044001 15.654000 2.150000
227 0 2 0.000000 18.229000 15.134000 2.362000
228 0 2 0.000000 19.764000 15.094000 2.475000
229 0 1 0.000000 1.495000 11.841000 15.807000
230 0 2 0.000000 1.390000 11.516000 16.694000
231 0 2 0.000000 0.640000 12.278000 15.606000
232 0 1 0.000000 16.052000 3.547000 4.391000
233 0 2 0.000000 15.197000 3.465000 4.864000
234 0 2 0.000000 15.965000 3.281000 3.465000
235 0 1 0.000000 4.509000 11.701000 4.477000
236 0 2 0.000000 3.924000 11.029000 4.848000
237 0 2 0.000000 4.856000 12.236000 5.166000
238 0 1 0.000000 -6.520000 20.417999 8.011000
239 0 2 0.000000 -6.213000 20.268999 7.125000
240 0 2 0.000000 -6.424000 21.372000 8.199000
241 0 1 0.000000 23.118999 5.247000 15.005000
242 0 2 0.000000 22.212999 5.008000 15.193000
243 0 2 0.000000 23.260000 5.989000 15.590000
244 0 1 0.000000 18.914000 7.206000 1.844000
245 0 2 0.000000 18.524000 7.911000 2.366000
246 0 2 0.000000 18.488001 7.260000 0.975000
247 0 1 0.000000 17.546000 5.781000 4.040000
248 0 2 0.000000 16.886999 5.069000 4.166000
249 0 2 0.000000 17.155001 6.327000 3.372000
250 0 1 0.000000 27.379000 3.704000 7.462000
251 0 2 0.000000 26.478001 3.728000 7.113000
252 0 2 0.000000 27.950001 4.019000 6.718000
253 0 1 0.000000 -0.126000 6.540000 3.913000
254 0 2 0.000000 -0.359000 7.395000 3.517000
255 0 2 0.000000 0.538000 6.655000 4.614000
256 0 1 0.000000 -6.332000 19.048000 11.834000
257 0 2 0.000000 -5.700000 18.836000 11.167000
258 0 2 0.000000 -6.696000 18.183001 12.162000
259 0 1 0.000000 12.249000 12.939000 10.776000
260 0 2 0.000000 13.082000 13.092000 10.254000
261 0 2 0.000000 11.659000 12.462000 10.127000
262 0 1 0.000000 5.213000 11.135000 1.999000
263 0 2 0.000000 4.914000 11.552000 2.774000
264 0 2 0.000000 5.730000 10.337000 2.181000
265 0 1 0.000000 13.233000 14.267000 3.251000
266 0 2 0.000000 13.134000 13.405000 2.798000
267 0 2 0.000000 12.787000 14.810000 2.654000
268 0 1 0.000000 20.559999 9.781000 15.009000
269 0 2 0.000000 20.441999 10.742000 14.927000
270 0 2 0.000000 21.468000 9.549000 14.878000
271 0 1 0.000000 5.615000 23.030001 13.778000
272 0 2 0.000000 5.208000 23.736000 13.297000
273 0 2 0.000000 4.958000 22.914000 14.498000
274 0 1 0.000000 24.562000 3.903000 6.803000
275 0 2 0.000000 23.969999 4.590000 7.101000
276 0 2 0.000000 24.323999 3.104000 7.327000
277 0 1 0.000000 21.249001 8.694000 1.702000
278 0 2 0.000000 21.594000 9.198000 2.448000
279 0 2 0.000000 20.612000 8.040000 1.987000
280 0 1 0.000000 8.924000 8.049000 2.840000
281 0 2 0.000000 8.406000 7.217000 2.574000
282 0 2 0.000000 8.599000 8.126000 3.728000
283 0 1 0.000000 6.075000 17.841999 5.772000
284 0 2 0.000000 6.634000 17.766001 6.537000
285 0 2 0.000000 5.224000 18.242001 6.032000
286 0 1 0.000000 1.228000 4.326000 2.021000
287 0 2 0.000000 0.730000 5.029000 2.481000
288 0 2 0.000000 0.512000 3.645000 1.951000
289 0 1 0.000000 -11.278000 17.997999 30.504000
290 0 2 0.000000 -11.245000 18.931999 30.731001
291 0 2 0.000000 18.889999 17.875999 30.575001
292 0 1 0.000000 11.279000 10.993000 5.063000
293 0 2 0.000000 12.099000 10.536000 5.228000
294 0 2 0.000000 10.961000 10.756000 4.179000
295 0 1 0.000000 8.149000 11.805000 1.319000
296 0 2 0.000000 8.557000 12.637000 1.037000
297 0 2 0.000000 7.430000 11.592000 0.700000
298 0 1 0.000000 -3.402000 20.995001 11.570000
299 0 2 0.000000 -3.720000 20.472000 10.842000
300 0 2 0.000000 -3.109000 21.778999 11.066000
301 0 1 0.000000 8.263000 17.599001 7.589000
302 0 2 0.000000 8.438000 18.507999 7.308000
303 0 2 0.000000 8.905000 16.958000 7.174000
304 0 1 0.000000 18.966000 5.558000 12.718000
305 0 2 0.000000 19.670000 4.939000 12.803000
306 0 2 0.000000 18.552999 5.196000 11.902000
307 0 1 0.000000 15.098000 17.466999 10.178000
308 0 2 0.000000 14.736000 17.150999 10.983000
309 0 2 0.000000 14.755000 18.368000 10.096000
310 0 1 0.000000 11.859000 4.324000 6.567000
311 0 2 0.000000 11.975000 3.681000 5.801000
312 0 2 0.000000 11.354000 3.785000 7.233000
313 0 1 0.000000 16.606001 15.114000 6.874000
314 0 2 0.000000 16.841000 15.823000 7.490000
315 0 2 0.000000 16.839001 14.239000 7.184000
316 0 1 0.000000 16.059999 22.377001 13.256000
317 0 2 0.000000 15.208000 22.670000 13.564000
318 0 2 0.000000 16.691999 23.023001 13.619000
319 0 1 0.000000 11.610000 4.926000 1.496000
320 0 2 0.000000 10.870000 4.436000 1.933000
321 0 2 0.000000 11.198000 5.695000 1.033000
322 0 1 0.000000 20.105000 19.062000 2.711000
323 0 2 0.000000 21.042000 18.922001 2.543000
324 0 2 0.000000 19.712999 19.782000 2.213000
325 0 1 0.000000 0.185000 5.844000 13.172000
326 0 2 0.000000 -0.687000 5.658000 12.875000
327 0 2 0.000000 0.738000 5.055000 13.055000
328 0 1 0.000000 14.269000 18.237000 3.843000
329 0 2 0.000000 13.485000 18.113001 4.399000
330 0 2 0.000000 14.622000 17.353001 4.023000
331 0 1 0.000000 4.311000 16.368000 14.894000
332 0 2 0.000000 4.951000 16.246000 14.161000
333 0 2 0.000000 4.074000 15.471000 15.031000
334 0 1 0.000000 13.745000 9.881000 8.699000
335 0 2 0.000000 13.537000 9.645000 7.788000
336 0 2 0.000000 13.096000 9.479000 9.329000
337 0 1 0.000000 10.274000 19.405001 2.637000
338 0 2 0.000000 10.032000 20.298000 2.422000
339 0 2 0.000000 11.209000 19.464001 2.415000
340 0 1 0.000000 15.200000 10.742000 15.435000
341 0 2 0.000000 14.414000 11.291000 15.483000
342 0 2 0.000000 15.847000 11.460000 15.501000
343 0 1 0.000000 -1.781000 8.155000 10.097000
344 0 2 0.000000 -1.900000 8.433000 11.020000
345 0 2 0.000000 -2.272000 7.362000 10.120000
346 0 1 0.000000 6.506000 16.487000 13.085000
347 0 2 0.000000 7.087000 16.256001 13.832000
348 0 2 0.000000 6.986000 16.379999 12.244000
349 0 1 0.000000 23.475000 13.717000 8.758000
350 0 2 0.000000 22.767000 13.838000 9.401000
351 0 2 0.000000 -7.108000 14.467000 8.947000
352 0 1 0.000000 6.273000 10.130000 7.383000
353 0 2 0.000000 7.009000 10.621000 6.972000
354 0 2 0.000000 6.414000 9.162000 7.371000
355 0 1 0.000000 11.841000 15.472000 11.961000
356 0 2 0.000000 11.930000 14.554000 11.592000
357 0 2 0.000000 11.981000 16.000000 11.162000
358 0 1 0.000000 2.136000 14.854000 4.703000
359 0 2 0.000000 2.885000 15.234000 5.153000
360 0 2 0.000000 2.401000 14.557000 3.788000
361 0 1 0.000000 -4.963000 7.519000 14.634000
362 0 2 0.000000 25.625999 6.858000 15.101000
363 0 2 0.000000 -4.125000 7.426000 15.192000
364 0 1 0.000000 5.159000 7.925000 13.752000
365 0 2 0.000000 5.393000 7.912000 12.726000
366 0 2 0.000000 5.698000 8.640000 14.137000
367 0 1 0.000000 -4.036000 10.548000 1.162000
368 0 2 0.000000 -3.807000 9.604000 1.079000
369 0 2 0.000000 -3.355000 10.811000 1.759000
370 0 1 0.000000 3.070000 19.139000 9.314000
371 0 2 0.000000 2.296000 18.499001 9.306000
372 0 2 0.000000 3.830000 18.583000 9.686000
373 0 1 0.000000 -6.111000 23.181999 8.339000
374 0 2 0.000000 -6.656000 23.705999 7.771000
375 0 2 0.000000 -5.169000 23.365000 8.100000
376 0 1 0.000000 15.932000 16.934000 13.452000
377 0 2 0.000000 16.374001 17.826000 13.526000
378 0 2 0.000000 16.381001 16.357000 12.782000
379 0 1 0.000000 3.679000 11.688000 10.535000
380 0 2 0.000000 3.655000 11.874000 9.579000
381 0 2 0.000000 4.179000 12.467000 10.840000
382 0 1 0.000000 -0.795000 10.683000 12.478000
383 0 2 0.000000 -0.552000 10.156000 13.218000
384 0 2 0.000000 -0.021000 10.731000 11.931000
385 0 1 0.000000 -7.983000 17.702000 9.271000
386 0 2 0.000000 -8.734000 18.103001 9.696000
387 0 2 0.000000 -8.174000 17.643999 8.303000
388 0 1 0.000000 17.509001 4.105000 1.482000
389 0 2 0.000000 18.252001 4.684000 1.378000
390 0 2 0.000000 17.225000 4.240000 2.411000
391 0 1 0.000000 13.672000 10.183000 5.823000
392 0 2 0.000000 13.981000 9.305000 5.554000
393 0 2 0.000000 14.264000 10.904000 5.525000
394 0 1 0.000000 27.385000 3.440000 3.648000
395 0 2 0.000000 27.986000 2.743000 3.827000
396 0 2 0.000000 27.882000 4.329000 3.722000
397 0 1 0.000000 2.920000 16.063999 11.759000
398 0 2 0.000000 2.240000 15.383000 11.604000
399 0 2 0.000000 2.457000 16.763000 12.299000
400 0 1 0.000000 16.558001 21.400000 6.766000
401 0 2 0.000000 17.424000 21.108000 6.589000
402 0 2 0.000000 16.697001 21.933001 7.518000
403 0 1 0.000000 -2.549000 23.122999 10.454000
404 0 2 0.000000 -1.593000 23.195999 10.240000
405 0 2 0.000000 -2.953000 23.302000 9.556000
406 0 1 0.000000 14.324000 7.618000 4.851000
407 0 2 0.000000 14.207000 6.890000 4.217000
408 0 2 0.000000 15.294000 7.673000 4.977000
409 0 1 0.000000 -7.118000 25.215000 13.147000
410 0 2 0.000000 -7.621000 24.850000 13.870000
411 0 2 0.000000 -6.973000 24.546000 12.448000
412 0 1 0.000000 -4.767000 19.912001 2.105000
413 0 2 0.000000 -5.518000 20.226999 2.571000
414 0 2 0.000000 -4.812000 20.500999 1.307000
415 0 1 0.000000 25.023001 11.927000 2.183000
416 0 2 0.000000 -5.324000 11.927000 2.666000
417 0 2 0.000000 24.548000 12.754000 2.468000
418 0 1 0.000000 12.784000 12.172000 1.892000
419 0 2 0.000000 12.121000 12.690000 1.450000
420 0 2 0.000000 12.354000 11.492000 2.455000
421 0 1 0.000000 15.213000 15.842000 4.321000
422 0 2 0.000000 14.552000 15.182000 3.983000
423 0 2 0.000000 15.321000 15.659000 5.280000
424 0 1 0.000000 19.475000 6.307000 9.315000
425 0 2 0.000000 19.782000 7.059000 9.821000
426 0 2 0.000000 18.555000 6.498000 9.217000
427 0 1 0.000000 11.027000 16.461000 2.119000
428 0 2 0.000000 11.494000 17.288000 1.881000
429 0 2 0.000000 10.083000 16.576000 1.818000
430 0 1 0.000000 19.391001 10.053000 10.371000
431 0 2 0.000000 19.405001 10.606000 9.609000
432 0 2 0.000000 18.634001 9.459000 10.372000
433 0 1 0.000000 11.372000 7.926000 4.062000
434 0 2 0.000000 10.731000 7.875000 3.358000
435 0 2 0.000000 12.045000 7.210000 3.963000
436 0 1 0.000000 1.945000 21.716999 2.763000
437 0 2 0.000000 1.618000 20.856001 2.941000
438 0 2 0.000000 2.739000 21.756001 2.191000
439 0 1 0.000000 5.780000 21.278999 15.847000
440 0 2 0.000000 6.668000 21.098000 16.167000
441 0 2 0.000000 5.367000 20.427999 15.607000
442 0 1 0.000000 9.506000 13.786000 2.041000
443 0 2 0.000000 9.933000 13.061000 2.513000
444 0 2 0.000000 10.205000 14.275000 1.605000
445 0 1 0.000000 24.858000 4.320000 4.248000
446 0 2 0.000000 24.469999 4.098000 5.098000
447 0 2 0.000000 25.754999 3.960000 4.143000
448 0 1 0.000000 13.781000 15.643000 14.898000
449 0 2 0.000000 13.491000 14.943000 15.594000
450 0 2 0.000000 12.992000 16.028000 14.473000
451 0 1 0.000000 16.629999 6.741000 10.464000
452 0 2 0.000000 16.440001 5.968000 9.888000
453 0 2 0.000000 15.960000 6.730000 11.140000
454 0 1 0.000000 16.836000 13.494000 9.444000
455 0 2 0.000000 16.736000 14.136000 10.184000
456 0 2 0.000000 17.701000 13.624000 9.104000
457 0 1 0.000000 12.457000 20.695999 8.013000
458 0 2 0.000000 12.246000 21.568001 7.671000
459 0 2 0.000000 12.194000 20.025999 7.327000
460 0 1 0.000000 -3.662000 16.636999 13.312000
461 0 2 0.000000 -3.753000 17.611000 13.326000
462 0 2 0.000000 -4.362000 16.285999 13.863000
463 0 1 0.000000 10.461000 23.285000 15.229000
464 0 2 0.000000 10.527000 22.367001 15.677000
465 0 2 0.000000 11.056000 23.114000 14.463000
466 0 1 0.000000 1.032000 17.351000 8.886000
467 0 2 0.000000 1.693000 16.601000 8.713000
468 0 2 0.000000 0.503000 17.136000 9.664000
469 0 1 0.000000 0.957000 19.273001 0.785000
470 0 2 0.000000 0.660000 18.919001 1.642000
471 0 2 0.000000 1.341000 20.143000 0.960000
472 0 1 0.000000 7.277000 10.186000 4.233000
473 0 2 0.000000 7.792000 10.394000 5.079000
474 0 2 0.000000 6.588000 10.749000 4.281000
475 0 1 0.000000 -6.100000 16.083000 14.713000
476 0 2 0.000000 -6.787000 16.606001 14.359000
477 0 2 0.000000 -6.372000 15.374000 15.321000
478 0 1 0.000000 0.638000 23.698999 7.403000
479 0 2 0.000000 0.022000 23.319000 6.794000
480 0 2 0.000000 1.266000 22.968000 7.517000
481 0 1 0.000000 18.582001 11.056000 13.279000
482 0 2 0.000000 18.559999 10.107000 13.046000
483 0 2 0.000000 18.202000 11.507000 12.506000
484 0 1 0.000000 14.297000 20.760000 13.057000
485 0 2 0.000000 14.314000 20.066000 13.667000
486 0 2 0.000000 13.473000 20.452999 12.675000
487 0 1 0.000000 19.406000 14.105000 12.150000
488 0 2 0.000000 19.913000 13.596000 11.488000
489 0 2 0.000000 19.785000 13.756000 13.014000
490 0 1 0.000000 21.038000 20.134001 9.824000
491 0 2 0.000000 21.105000 20.360001 8.886000
492 0 2 0.000000 20.098000 20.093000 10.156000
493 0 1 0.000000 10.419000 17.209000 4.714000
494 0 2 0.000000 10.701000 16.875000 3.835000
495 0 2 0.000000 9.519000 17.516001 4.423000
496 0 1 0.000000 -3.375000 22.872999 7.838000
497 0 2 0.000000 -2.826000 23.118000 7.093000
498 0 2 0.000000 -3.069000 21.931999 8.130000
499 0 1 0.000000 1.895000 8.997000 16.514999
500 0 2 0.000000 1.742000 8.052000 16.603001
501 0 2 0.000000 2.374000 9.240000 15.699000
502 0 1 0.000000 -6.254000 25.878000 31.597000
503 0 2 0.000000 -5.953000 26.726999 31.893000
504 0 2 0.000000 -5.581000 25.229000 31.813000
505 0 1 0.000000 8.464000 0.956000 0.015000
506 0 2 0.000000 0.361000 11.002000 31.558001
507 0 2 0.000000 9.025000 1.430000 0.643000
508 0 1 0.000000 4.562000 22.025999 1.895000
509 0 2 0.000000 13.412000 1.429000 1.636000
510 0 2 0.000000 4.757000 21.472000 1.143000
511 0 1 0.000000 13.304000 14.486000 6.501000
512 0 2 0.000000 12.410000 14.321000 6.176000
513 0 2 0.000000 13.494000 13.775000 7.124000
514 0 1 0.000000 21.232000 7.879000 10.807000
515 0 2 0.000000 21.608999 7.755000 11.727000
516 0 2 0.000000 20.759001 8.725000 10.794000
517 0 1 0.000000 -4.577000 19.183001 9.503000
518 0 2 0.000000 -5.269000 19.677000 9.013000
519 0 2 0.000000 -4.442000 18.424000 8.951000
520 0 1 0.000000 22.100000 5.954000 2.334000
521 0 2 0.000000 22.438000 6.451000 1.521000
522 0 2 0.000000 21.171000 5.680000 2.295000
523 0 1 0.000000 19.823000 3.873000 10.469000
524 0 2 0.000000 19.920000 4.637000 9.886000
525 0 2 0.000000 19.316000 3.295000 9.902000
526 0 1 0.000000 8.434000 7.530000 10.493000
527 0 2 0.000000 8.655000 8.157000 9.765000
528 0 2 0.000000 8.684000 6.650000 10.230000
529 0 1 0.000000 17.760000 23.896000 14.764000
530 0 2 0.000000 18.204000 24.754000 14.745000
531 0 2 0.000000 17.028999 23.686001 15.355000
532 0 1 0.000000 -10.375000 23.052000 7.348000
533 0 2 0.000000 19.867001 23.051001 7.026000
534 0 2 0.000000 -10.021000 22.150999 7.170000
535 0 1 0.000000 8.405000 16.341999 15.249000
536 0 2 0.000000 8.272000 17.318001 15.197000
537 0 2 0.000000 9.299000 16.010000 14.983000
538 0 1 0.000000 -7.301000 20.955000 3.305000
539 0 2 0.000000 -7.866000 21.311001 2.592000
540 0 2 0.000000 -7.106000 21.787001 3.717000
541 0 1 0.000000 17.927000 22.773001 8.691000
542 0 2 0.000000 18.159000 23.629000 8.224000
543 0 2 0.000000 18.731001 22.419001 9.089000
544 0 1 0.000000 18.127001 2.855000 5.875000
545 0 2 0.000000 18.606001 3.710000 5.761000
546 0 2 0.000000 17.320000 2.946000 5.374000
547 0 1 0.000000 19.910000 12.130000 8.180000
548 0 2 0.000000 20.327999 11.364000 7.739000
549 0 2 0.000000 19.979000 12.878000 7.567000
550 0 1 0.000000 -14.519000 25.961000 31.084999
551 0 2 0.000000 -14.449000 25.830000 32.020000
552 0 2 0.000000 -13.639000 25.768000 30.690001
553 0 1 0.000000 6.044000 5.446000 16.166000
554 0 2 0.000000 6.903000 5.131000 15.815000
555 0 2 0.000000 6.058000 6.412000 16.403999
556 0 1 0.000000 11.961000 21.339001 14.812000
557 0 2 0.000000 11.736000 21.125000 13.843000
558 0 2 0.000000 12.222000 20.507999 15.189000
559 0 1 0.000000 -9.760000 20.077999 13.447000
560 0 2 0.000000 -9.098000 20.017000 14.124000
561 0 2 0.000000 -9.235000 20.517000 12.679000
562 0 1 0.000000 -6.059000 10.319000 14.498000
563 0 2 0.000000 -5.734000 9.561000 14.964000
564 0 2 0.000000 24.823000 10.045000 13.575000
565 0 1 0.000000 14.642000 3.423000 6.736000
566 0 2 0.000000 15.043000 4.208000 7.105000
567 0 2 0.000000 13.679000 3.663000 6.766000
568 0 1 0.000000 6.633000 7.311000 3.564000
569 0 2 0.000000 5.842000 7.180000 3.043000
570 0 2 0.000000 6.574000 8.139000 4.061000
571 0 1 0.000000 12.537000 5.914000 13.646000
572 0 2 0.000000 13.419000 6.274000 13.282000
573 0 2 0.000000 11.858000 6.442000 13.226000
574 0 1 0.000000 21.743999 3.075000 5.420000
575 0 2 0.000000 21.016001 3.136000 4.795000
576 0 2 0.000000 21.792999 3.981000 5.810000
577 0 1 0.000000 22.652000 9.457000 7.895000
578 0 2 0.000000 23.173000 8.753000 7.520000
579 0 2 0.000000 23.302999 10.198000 8.149000
580 0 1 0.000000 22.112000 7.403000 4.373000
581 0 2 0.000000 22.583000 8.235000 4.259000
582 0 2 0.000000 22.079000 6.914000 3.530000
583 0 1 0.000000 4.495000 18.705999 31.681999
584 0 2 0.000000 13.580000 7.895000 0.239000
585 0 2 0.000000 4.774000 19.598000 31.775999
586 0 1 0.000000 2.713000 9.064000 9.121000
587 0 2 0.000000 3.141000 8.311000 9.544000
588 0 2 0.000000 3.354000 9.594000 8.599000
589 0 1 0.000000 16.301001 5.327000 8.127000
590 0 2 0.000000 17.162001 5.079000 7.767000
591 0 2 0.000000 16.077000 6.130000 7.599000
592 0 1 0.000000 17.634001 24.816000 11.235000
593 0 2 0.000000 18.413000 24.219999 11.304000
594 0 2 0.000000 16.955000 24.226000 10.823000
595 0 1 0.000000 22.704000 18.954000 1.629000
596 0 2 0.000000 -7.487000 18.569000 1.539000
597 0 2 0.000000 -8.420000 19.875999 1.475000
598 0 1 0.000000 21.420000 13.201000 10.417000
599 0 2 0.000000 20.934000 12.806000 9.661000
600 0 2 0.000000 21.402000 12.496000 11.066000
601 0 1 0.000000 12.207000 25.388000 12.831000
602 0 2 0.000000 11.773000 25.004000 12.095000
603 0 2 0.000000 12.859000 24.745001 12.991000
604 0 1 0.000000 4.418000 13.516000 0.579000
605 0 2 0.000000 5.249000 13.220000 0.882000
606 0 2 0.000000 -4.148000 24.128000 31.868999
607 0 1 0.000000 1.219000 20.292999 4.499000
608 0 2 0.000000 1.497000 19.379000 4.539000
609 0 2 0.000000 0.317000 20.305000 4.888000
610 0 1 0.000000 1.434000 5.187000 9.596000
611 0 2 0.000000 0.879000 5.982000 9.452000
612 0 2 0.000000 0.784000 4.466000 9.718000
613 0 1 0.000000 1.198000 6.060000 6.377000
614 0 2 0.000000 2.170000 6.222000 6.391000
615 0 2 0.000000 0.853000 6.480000 7.178000
616 0 1 0.000000 -4.515000 12.924000 7.997000
617 0 2 0.000000 -4.631000 12.065000 7.658000
618 0 2 0.000000 -4.657000 12.810000 8.949000
619 0 1 0.000000 21.011000 14.708000 0.263000
620 0 2 0.000000 12.220000 24.936001 31.500999
621 0 2 0.000000 20.624001 15.584000 0.436000
622 0 1 0.000000 20.455999 10.204000 6.546000
623 0 2 0.000000 21.232000 9.793000 7.031000
624 0 2 0.000000 20.801001 10.648000 5.749000
625 0 1 0.000000 12.765000 9.702000 2.410000
626 0 2 0.000000 13.753000 9.456000 2.388000
627 0 2 0.000000 12.354000 8.919000 2.748000
628 0 1 0.000000 18.298000 21.167999 2.669000
629 0 2 0.000000 17.455000 21.614000 2.833000
630 0 2 0.000000 18.146000 21.156000 1.709000
631 0 1 0.000000 22.778999 6.897000 12.929000
632 0 2 0.000000 23.622999 7.153000 12.536000
633 0 2 0.000000 22.843000 5.949000 13.166000
634 0 1 0.000000 -0.586000 22.959999 13.803000
635 0 2 0.000000 0.042000 23.353001 13.167000
636 0 2 0.000000 -0.610000 23.521999 14.617000
637 0 1 0.000000 8.382000 16.181999 0.825000
638 0 2 0.000000 7.469000 16.448999 0.710000
639 0 2 0.000000 8.324000 15.242000 1.093000
640 0 1 0.000000 -3.383000 18.660999 31.584000
641 0 2 0.000000 -3.202000 18.076000 30.872000
642 0 2 0.000000 -4.208000 19.165001 31.514999
643 0 1 0.000000 20.490000 14.802000 7.053000
644 0 2 0.000000 19.780001 14.844000 6.375000
645 0 2 0.000000 21.368999 15.080000 6.696000
646 0 1 0.000000 12.304000 19.738001 12.104000
647 0 2 0.000000 12.742000 18.931000 12.457000
648 0 2 0.000000 12.870000 20.047001 11.397000