LAMMPS data file via write_data, version 23 Jun 2022, timestep = 15306000

2268 atoms
2 atom types

0.8054729240965202 46.645226075880075 xlo xhi
0 20.047001 ylo yhi
0 20.857 zlo zhi

Masses

1 1.008
2 15.999

Atoms # full

62 0 2 0.5897 4.540865098748853 1.1588111363871656 0.9784000054589083 0 1 0
1815 0 2 0.5897 1.459833909510275 0.9860953142183337 1.726246498226148 0 0 0
61 0 1 -1.1794 4.681617505097673 1.9539282996634002 0.49366271070553874 0 1 0
66 0 2 0.5897 4.493800510732199 3.39598108214915 1.6361496717011352 0 -1 0
511 0 1 -1.1794 1.994977392219475 3.2143357811328004 3.644040859772211 0 0 0
1813 0 1 -1.1794 1.867407465587357 0.33857482463577143 2.384160001940423 0 0 0
1365 0 2 0.5897 5.667335078909061 3.4468192055340445 3.5193427649716162 0 -2 -1
30 0 2 0.5897 1.091051891253082 2.992282776871029 0.9747336445375848 0 0 1
512 0 2 0.5897 1.0601718662749435 3.414208673695221 3.3246640196185457 0 0 0
513 0 2 0.5897 2.630393021746842 3.507616779349581 2.951557374079637 0 0 0
64 0 1 -1.1794 4.377051906182548 3.9674079903384643 2.4159519480640483 0 -1 0
1814 0 2 0.5897 2.8632857536439333 0.3386662856418401 2.360046229982514 0 0 0
1601 0 2 0.5897 4.935263452480043 0.23013226241844928 3.0750896643794086 0 1 0
1600 0 1 -1.1794 4.551680982919717 0.03860469509602603 2.2148002471961057 0 1 0
28 0 1 -1.1794 0.8594255953407502 2.0967343703910912 0.6318207516601893 0 0 1
1097 0 2 0.5897 6.602031992314195 2.2199705334354363 0.6743177673852725 0 1 0
1096 0 1 -1.1794 7.500531573135619 2.204353086448874 0.9614279143936884 0 1 0
2126 0 2 0.5897 7.714051730701297 0.7998462894965959 2.1706889320795493 0 0 0
1098 0 2 0.5897 7.670343214053211 3.1329798781012226 1.2256984994251212 0 1 0
2125 0 1 -1.1794 8.079073318018606 0.10179048568312674 2.7695089137891857 0 0 0
1132 0 1 -1.1794 11.278977906642417 3.357940674240833 2.115564490142068 0 0 3
1133 0 2 0.5897 11.992460792781685 3.172513726875034 2.738132141484516 0 0 3
1134 0 2 0.5897 11.70639891520009 3.8071581037380144 1.3685214816245426 0 0 3
1179 0 2 0.5897 9.677696473531613 3.603102731691906 2.986677744368591 0 0 0
2088 0 2 0.5897 9.73084607912005 0.6073221108187746 2.3015161732823204 0 0 2
2127 0 2 0.5897 7.519307895693477 0.06519380742021792 3.5318681292971843 0 0 0
2086 0 1 -1.1794 10.66410198199034 0.6540263437205288 1.934599963795339 0 0 2
2087 0 2 0.5897 10.865820444028534 1.6139096897369665 1.982668414445763 0 0 2
1177 0 1 -1.1794 8.961563428553879 3.692719879347615 3.6070074615763543 0 0 0
1364 0 2 0.5897 7.243553632744298 3.3388886891537526 3.9949713912680824 0 -2 -1
65 0 2 0.5897 4.447709295372032 4.86910805932642 2.1509675230940117 0 -1 0
2128 0 1 -1.1794 4.150146336572773 6.70511213993015 2.4395757918894883 0 0 1
586 0 1 -1.1794 1.2494407297388586 6.645607679399284 2.547462434149109 0 0 0
2130 0 2 0.5897 3.2170612420693794 6.819768978914785 2.6298081727534974 0 0 1
2129 0 2 0.5897 4.632558189790462 7.114167613108764 3.187745023149348 0 0 1
587 0 2 0.5897 1.0400202388472868 7.391055297346328 1.9549608102307656 0 0 0
816 0 2 0.5897 1.1749926350041684 5.453551413935967 1.3768344787292426 0 1 1
814 0 1 -1.1794 1.310789065206 4.754234631018417 0.728492350668058 0 1 1
884 0 2 0.5897 4.699769636700674 7.841753794851011 1.2604306368891887 0 1 1
1396 0 1 -1.1794 7.929183464754926 5.089504626552923 0.8837682596491114 0 1 1
1398 0 2 0.5897 7.913290805055958 5.446189216775955 1.748467871297086 0 1 1
1366 0 1 -1.1794 8.383173859529274 6.936454907019105 2.911913323568587 0 0 -1
1519 0 1 -1.1794 10.999522604916011 6.77210025550174 2.4808765205066727 0 2 1
1521 0 2 0.5897 10.174152017734293 6.903423291691559 2.8907048971744818 0 1 1
1520 0 2 0.5897 11.019519337017563 6.186969072736906 1.7202303228643623 0 2 1
1367 0 2 0.5897 7.755218754456438 7.23814328417115 3.5593027562312876 0 0 -1
1397 0 2 0.5897 8.778900075020815 4.658088587702268 0.7029626361928113 0 1 1
1368 0 2 0.5897 8.202898090369189 7.488053012512085 2.1400686203918386 0 0 -1
681 0 2 0.5897 11.703183995388349 5.967535133018076 3.8400152353998895 0 -1 0
1348 0 1 -1.1794 1.109977668286699 8.619680268585281 0.8621291207032888 0 0 0
1617 0 2 0.5897 4.7835366629345595 9.971556243275591 1.5763957093744045 0 -2 -1
1615 0 1 -1.1794 4.534171152213723 10.529943847954653 2.345002944540874 0 -2 -1
507 0 2 0.5897 3.1239045012394198 10.185251510882393 3.246741080956132 0 0 1
883 0 1 -1.1794 4.971485812804378 8.433799248670045 0.5259190348284305 0 1 1
1616 0 2 0.5897 4.723968599268902 11.473330948200095 2.2294164666074963 0 -2 -1
6 0 2 0.5897 5.9903162304528825 10.133243593153 3.4449406029811933 0 0 2
505 0 1 -1.1794 2.39538076196564 10.181550093880386 3.877335261436742 0 0 1
1349 0 2 0.5897 1.642011031687478 8.280060366662584 0.16028257512062 0 0 0
355 0 1 -1.1794 1.16187727794193 11.280910563000564 1.1963179464932596 0 0 1
356 0 2 0.5897 1.3548234268187822 10.319878465467886 1.2490232978515665 0 0 1
77 0 2 0.5897 5.737130004545761 11.740809598504732 0.2365805237365698 0 1 0
4 0 1 -1.1794 6.696068816043004 10.143886086255959 4.104579561114707 0 0 2
1638 0 2 0.5897 6.750125785676062 8.396932819884752 0.5527000175534934 0 -1 -1
1636 0 1 -1.1794 7.680557080667842 8.572777482928624 0.7232975916936435 0 -1 -1
422 0 2 0.5897 7.544322269621013 10.278924963593008 1.2031451590557847 0 0 0
1510 0 1 -1.1794 11.061902235065181 10.548248515102722 1.3626874526939585 1 1 -1
1373 0 2 0.5897 9.835301206998073 10.039213332985641 2.5029857281172716 0 1 0
1511 0 2 0.5897 10.81963781144458 10.890069489201547 0.473147319500819 1 1 -1
1512 0 2 0.5897 11.861327730979236 10.020591968934637 1.431016548757399 0 1 -1
1372 0 1 -1.1794 9.550548654660167 10.050977715213875 3.448158715470545 0 1 0
421 0 1 -1.1794 7.285747251328371 11.222092749861837 1.1878258843649905 0 0 0
5 0 2 0.5897 7.572690538647011 10.120649567454635 3.673555648601544 0 0 2
1374 0 2 0.5897 10.003544107106341 10.777717533706753 3.915962337194154 0 1 0
423 0 2 0.5897 7.804271910108104 11.799851540608957 1.7973948654249285 0 0 0
1673 0 2 0.5897 12.226365660932949 8.184303518096277 2.161564665176323 0 0 1
107 0 2 0.5897 4.806420811915483 14.462997936250536 1.1542843792408128 0 0 0
13 0 1 -1.1794 4.470838373256038 13.276042639986533 2.531782887623308 0 -1 0
15 0 2 0.5897 3.5977694759495296 13.380039478384527 2.9239535608932625 0 -1 0
14 0 2 0.5897 5.021230041400635 13.533658710588915 3.2782588976443168 0 -1 0
2245 0 1 -1.1794 1.6448813785391931 13.49382655269346 2.7836531574194514 1 0 0
106 0 1 -1.1794 5.23656595737276 14.982533215604583 0.4378563403608136 0 0 0
807 0 2 0.5897 1.6018262094899873 15.047144647228404 1.3878528925423275 0 0 0
2247 0 2 0.5897 1.348853971261987 12.80123047439713 2.19792967482203 1 0 0
108 0 2 0.5897 5.170924971521704 15.908733516609916 0.6990818822049715 0 0 0
805 0 1 -1.1794 1.2964756703430895 15.356739892840608 0.5520296082837458 0 0 0
1074 0 2 0.5897 11.577690926553847 12.044066023555287 2.4228620037165616 0 2 1
1032 0 2 0.5897 7.5283097895305 14.764550663463432 0.5073109217474131 0 0 2
2055 0 2 0.5897 8.8178641935563 14.048535439859789 2.11504169156772 0 0 0
2053 0 1 -1.1794 8.662526756118073 13.452313760005374 2.7941364143686456 0 0 1
2054 0 2 0.5897 9.574446794164889 13.23540805765295 3.0945309829389545 0 0 1
1571 0 2 0.5897 11.478278290129843 14.156450158425034 1.8862423121792162 0 1 -1
1072 0 1 -1.1794 11.505048743230986 12.804322879499797 3.041780812692329 0 2 1
1570 0 1 -1.1794 11.367079611416433 14.757082723161613 1.174580820456437 0 1 -1
1073 0 2 0.5897 12.090047396831796 12.654198324024815 3.79399729404639 0 2 1
1030 0 1 -1.1794 8.34789773526158 15.302793471176535 0.609506240258787 0 -1 2
1355 0 2 0.5897 7.307751643720124 13.654811223338521 3.8740353737799036 0 -1 0
1572 0 2 0.5897 11.026882166792255 15.61770790624841 1.499206477501119 0 1 -1
2095 0 1 -1.1794 1.1979249638471816 18.164504898941452 0.8320434340877744 0 -1 1
2097 0 2 0.5897 1.2466652299404812 17.203544129106703 0.9090524897796496 0 -1 1
2096 0 2 0.5897 1.383177252940082 18.68419091532601 1.6372264028243486 0 -1 1
1602 0 2 0.5897 4.635898545324804 19.109701851241457 2.0619880974263443 0 0 0
1756 0 1 -1.1794 4.683395411318202 17.325530813217235 2.102852802047083 1 -1 1
1757 0 2 0.5897 3.7917365792983784 17.234584695489882 2.52756189401694 1 -1 1
1758 0 2 0.5897 5.303476163016991 17.07088654408198 2.7825598550319572 1 -1 1
1267 0 1 -1.1794 6.2930414092417255 16.647681187377426 4.003176624520904 0 -2 1
334 0 1 -1.1794 2.4280590573591168 16.93676116394497 3.5913246817522664 0 0 1
335 0 2 0.5897 1.4702466841327635 16.714621839087133 3.7520547918064526 0 0 1
1031 0 2 0.5897 8.046161494618856 16.200670369395144 0.5525890412256227 0 -1 2
881 0 2 0.5897 7.6398968044143905 18.92941244327948 1.4515726951349925 0 -1 1
880 0 1 -1.1794 7.532278987215267 18.195326031856908 0.8527336318658932 0 -1 1
2017 0 1 -1.1794 10.541763153468214 17.33055662237183 1.7384313446561277 0 0 1
1385 0 2 0.5897 9.307240506014798 17.045569762448647 2.944191749361491 0 0 0
882 0 2 0.5897 8.199685739614726 18.31065260235146 0.17014674896035653 0 -1 1
2019 0 2 0.5897 11.408638399293151 17.53327307470434 2.1213215344066354 0 0 1
2018 0 2 0.5897 10.429149970624422 17.74574138454698 0.857080804498807 1 0 1
1386 0 2 0.5897 7.933789830696212 16.899432223643522 3.670961788976272 0 0 0
1384 0 1 -1.1794 8.900312337518844 16.963480670094086 3.823215809686873 0 0 0
523 0 1 -1.1794 5.924754862595847 0.4690206757420138 4.617907389711576 0 0 0
1363 0 1 -1.1794 6.253155579897356 3.2486859540015467 4.285556796697257 0 -2 -1
1143 0 2 0.5897 2.296858037502801 1.9794545932283871 4.918837350148379 0 1 1
1142 0 2 0.5897 2.099124046655519 1.7719521905870481 6.514917219426073 0 1 1
1141 0 1 -1.1794 2.6088444661483114 1.4889141587686519 5.692693857214539 0 1 1
1026 0 2 0.5897 4.227260827837659 1.6180338697003576 6.592814272629566 0 1 0
1024 0 1 -1.1794 4.84627395835042 1.594823219096243 7.363105213947523 0 1 0
524 0 2 0.5897 5.996914731028991 1.4509605466785955 4.840774456637752 0 0 0
1025 0 2 0.5897 4.5900988012786526 0.8435448589666162 7.895478658250634 0 1 0
71 0 2 0.5897 4.161899550303218 3.6857481714858693 8.016085397701 0 0 0
508 0 1 -1.1794 0.847303696652422 2.008880900389529 7.871086240622364 0 -1 0
525 0 2 0.5897 5.68701271675098 0.032681598564752654 5.461281146144724 0 0 0
590 0 2 0.5897 6.691245322841669 1.9732260114772244 7.620712761838631 0 0 0
1014 0 2 0.5897 9.381551602977959 2.3484274835380106 4.861885847644079 0 -1 2
1012 0 1 -1.1794 9.464027871187065 1.8111769336662995 5.695109933259835 0 -1 2
1013 0 2 0.5897 8.798566243667405 1.9369117894271886 6.295905465415978 1 -1 2
608 0 2 0.5897 10.653795681865077 2.6330281744445516 6.500352829571884 0 1 0
607 0 1 -1.1794 11.445227674719733 3.051150944964989 6.857783587296952 0 1 0
609 0 2 0.5897 11.134166801381042 3.6539970165025157 7.518267861177807 0 1 0
589 0 1 -1.1794 7.605282939628251 2.2435478775889397 7.484310555388126 0 0 0
591 0 2 0.5897 7.604452729535693 3.2217049334050234 7.6765992070932345 0 0 0
1878 0 2 0.5897 5.626761833800008 4.2680812191971595 5.53800959018848 0 0 1
2063 0 2 0.5897 2.3944431538485538 4.778398107973722 5.03599065563174 0 0 1
1876 0 1 -1.1794 5.212868576359933 4.938094699515505 6.162415564671185 0 0 1
2062 0 1 -1.1794 2.4298821943418316 5.160896706281166 5.877978881170557 0 0 1
2064 0 2 0.5897 2.484859018615081 6.131964779163691 5.708480707070949 0 0 1
1877 0 2 0.5897 4.217776505343742 4.874068126998874 6.102307304377317 0 0 1
1272 0 2 0.5897 1.1926011095177924 4.5791399638283625 7.224434952530158 0 0 0
1332 0 2 0.5897 5.594680817482165 6.579240755299382 5.130549388503405 0 0 0
1330 0 1 -1.1794 5.701181374039117 7.220395654942608 4.405759429064628 0 0 0
244 0 1 -1.1794 2.5279730046910673 7.971292177389671 5.641457646443057 1 0 0
1614 0 2 0.5897 4.6040020701591775 7.311823590465837 8.273365574778818 0 0 -1
1178 0 2 0.5897 9.341808003736299 4.347772781860449 4.222042257070257 0 0 0
377 0 2 0.5897 6.723290656504724 5.296654731436497 7.087503082502762 0 0 -1
680 0 2 0.5897 11.673699050700288 5.317675173114664 5.23942240061775 0 -1 0
134 0 2 0.5897 9.682803230840099 6.493507636960341 5.452470342999209 0 2 2
133 0 1 -1.1794 9.592414073233465 5.535337799778542 5.668459111960966 0 2 2
135 0 2 0.5897 8.83054432640825 5.530542479035283 6.263845122999434 0 2 2
376 0 1 -1.1794 7.565559486944499 5.330675544020677 7.522339662676725 0 0 -1
378 0 2 0.5897 7.714931107340434 5.965098852434822 8.210819698795929 0 0 -1
679 0 1 -1.1794 12.220529513537695 5.471042741059113 4.479697407257987 0 -1 0
1033 0 1 -1.1794 1.232997758617669 8.731663525860245 7.707384575055653 0 0 1
1331 0 2 0.5897 5.620874063367418 8.057974466497036 4.870549560217184 0 0 0
506 0 2 0.5897 2.449949293341917 9.322742136907035 4.338444044866076 0 0 1
246 0 2 0.5897 1.7789568279884846 8.122520690834337 6.248611422128371 1 1 0
245 0 2 0.5897 3.296089228123444 8.110398922870457 6.176092817667945 1 0 0
265 0 1 -1.1794 4.859263310212891 8.696889641357505 6.975994885184365 0 1 1
266 0 2 0.5897 5.802022180282411 8.874360010736705 7.199779453863241 0 1 1
639 0 2 0.5897 2.9015465699147116 11.456655593221674 5.172335383917421 0 -1 0
267 0 2 0.5897 4.465661616612252 9.45131296530964 7.379468386104021 0 1 1
104 0 2 0.5897 1.7114803429261534 11.615413140570515 7.1627545230267025 0 0 0
1764 0 2 0.5897 6.152566339228726 11.203110435393755 5.717523538577341 1 0 0
1034 0 2 0.5897 1.2222488995543064 9.64391849246462 8.100188741180027 0 0 1
1763 0 2 0.5897 6.368756514252198 11.925900277665514 6.868663232449888 1 0 0
1762 0 1 -1.1794 5.7667197099265115 11.938713435690225 6.125325030417035 1 0 0
103 0 1 -1.1794 1.2018052699012878 11.53887210334651 8.03171116470142 0 0 0
1886 0 2 0.5897 10.556391241096005 8.51709035509279 6.390459291955653 0 -1 1
2191 0 1 -1.1794 9.069469197991646 8.226614825982873 5.274778850822147 0 -2 0
2193 0 2 0.5897 8.48694693055539 8.56137962849595 5.995054863539005 0 -2 0
2192 0 2 0.5897 9.205480299120888 8.848271115984723 4.547731028349685 0 -2 0
1885 0 1 -1.1794 11.140323729769328 8.641055600201858 7.132526074155919 0 -1 1
640 0 1 -1.1794 7.594015395722176 9.134775506748905 7.489431570940429 0 1 -1
874 0 1 -1.1794 8.042387331310714 11.871541051891485 7.624061896870588 0 -2 -1
875 0 2 0.5897 8.566667506463187 11.992743018311776 6.787530404543146 0 -1 -1
641 0 2 0.5897 7.857137626130619 9.995869166034543 7.75332848375031 0 1 -1
642 0 2 0.5897 7.58980866367268 8.553896908455144 8.318787753403285 0 1 -1
1887 0 2 0.5897 12.007423605561346 8.906371976236548 6.846701709800137 0 -1 1
1269 0 2 0.5897 6.433068842625718 15.749995923239672 4.200373730589174 0 -2 1
638 0 2 0.5897 3.956517620098045 12.203974789496685 6.19163422034686 0 -1 0
1354 0 1 -1.1794 6.501176933621178 13.911664963460405 4.374315614578185 0 -1 0
637 0 1 -1.1794 3.0671206517949816 12.123727726284834 5.858185114038826 0 -1 0
2120 0 2 0.5897 2.651576734533756 13.915649872232114 5.0853235312743035 0 0 -1
2119 0 1 -1.1794 2.931077408208031 14.847782388169097 5.387334840069999 0 0 -1
51 0 2 0.5897 4.472677965400315 14.546967372910181 6.310791677822053 0 0 -1
49 0 1 -1.1794 4.94361494455272 14.886232289398007 7.074948795030806 0 0 -1
50 0 2 0.5897 5.812419103544944 15.236292237021832 6.775763220815006 0 0 -1
1106 0 2 0.5897 1.9849451743181739 15.303306362470938 6.765987776987358 0 0 0
1105 0 1 -1.1794 1.4307002055905698 15.558803820444318 7.546697054101215 0 0 0
1356 0 2 0.5897 6.490786561534831 13.353454993390987 5.164410134312851 0 -1 0
2121 0 2 0.5897 2.8718908770832985 15.366836289883429 4.568682541218151 0 0 -1
1107 0 2 0.5897 1.7697095249685586 15.037450680810801 8.28800336874354 0 0 0
2166 0 2 0.5897 11.893521530459036 12.3457224179176 6.57813641675475 0 0 0
392 0 2 0.5897 10.295945169998214 12.167036730862167 5.442917868144278 0 -2 0
391 0 1 -1.1794 9.4157098286571 12.432499265573883 5.268967459637958 0 -2 0
393 0 2 0.5897 9.579285492326065 13.40479284418798 5.22119341888264 0 -2 0
43 0 1 -1.1794 9.662034309736914 15.061459563593075 5.468236928971541 0 -3 1
45 0 2 0.5897 9.087881495389434 15.156810063643084 6.23680698877515 0 -3 1
149 0 2 0.5897 11.665153974145023 15.185816983428744 5.25388301099225 0 -2 -1
44 0 2 0.5897 9.259915590382667 15.582046804079237 4.783765001446429 0 -3 1
1258 0 1 -1.1794 7.6641243449694 15.329437456938036 7.273387798682144 1 -1 0
1260 0 2 0.5897 8.00225853741117 14.915002601300738 8.091108615744847 1 -1 0
876 0 2 0.5897 8.089261618431511 12.706212869866276 8.143800047653183 0 -2 -1
658 0 1 -1.1794 12.095131376272938 13.159498321349625 8.079269923373754 0 -1 0
2164 0 1 -1.1794 12.02779152676512 12.041545925592997 5.68317695440561 0 0 0
336 0 2 0.5897 2.6513080139227245 17.497686711077513 4.339406449781841 0 0 1
1485 0 2 0.5897 2.430083355608886 19.722914882270537 5.592653689861317 1 0 0
1513 0 1 -1.1794 5.342941794330796 18.345672060430438 6.03508974962546 0 -1 -1
1483 0 1 -1.1794 2.5384348585528573 18.807579354933814 5.904589337482344 1 0 0
1514 0 2 0.5897 4.4212555488495315 18.565191214387678 6.137173506271246 0 -1 -1
1484 0 2 0.5897 1.8470087940820739 18.72487531630638 6.596578431916455 1 0 0
1268 0 2 0.5897 6.044145351100695 17.18771083627121 4.818949185973533 0 -2 1
1515 0 2 0.5897 5.786633575435759 18.278961094411248 6.9017175094858665 0 -1 -1
2040 0 2 0.5897 1.0235183012843034 17.338114268505247 8.185741645506088 0 1 0
2184 0 2 0.5897 4.387697680174222 16.33372564749755 8.119998760371152 0 0 0
2081 0 2 0.5897 9.54481612193713 19.994427425652013 5.454721843176284 0 0 -2
1531 0 1 -1.1794 11.789596539478607 19.050585485690814 7.640832261622815 0 -1 1
1532 0 2 0.5897 11.001350480247229 19.188895097193438 7.0647551988520405 0 -1 1
1259 0 2 0.5897 7.6665255751237735 16.288946239092347 7.405578672713913 1 -1 0
2080 0 1 -1.1794 9.831346494258034 19.080147131544187 5.713734327315956 0 0 -2
2082 0 2 0.5897 9.70693795180672 18.425159478245327 5.016405246524964 0 0 -2
1577 0 2 0.5897 8.411924635202595 18.495223218623188 6.986144395757398 0 0 -1
1576 0 1 -1.1794 7.800572173787146 18.080853230310794 7.5662183013418005 0 0 -1
1578 0 2 0.5897 7.835264669007798 18.733488996845214 8.295288509886754 0 0 -1
1019 0 2 0.5897 1.108450250025562 0.2833681806492358 10.469421166526473 0 0 0
509 0 2 0.5897 0.8263954219381506 1.315704039950236 8.581147702128632 0 -1 0
817 0 1 -1.1794 5.811959947308022 3.0783405831535107 10.711771732101003 0 1 0
818 0 2 0.5897 5.8662712193215905 2.1478056207546934 10.823069647702257 0 1 0
1822 0 1 -1.1794 6.242860559583021 0.14405592852777713 10.958274528660526 0 -1 1
847 0 1 -1.1794 2.1703454572215106 3.8119395282627644 10.702528604698294 0 1 0
330 0 2 0.5897 2.5633699288190392 2.0950878302633287 11.562328942046966 0 0 1
848 0 2 0.5897 1.216981920701531 3.820041213268395 10.545732283211033 0 1 0
1018 0 1 -1.1794 1.6753047253725084 0.09141035930500507 9.708972759096305 0 0 0
849 0 2 0.5897 2.624320830084547 3.922676105431439 9.852073447175389 0 1 0
819 0 2 0.5897 5.604404848949229 3.561484642989383 11.579042163920077 0 1 0
72 0 2 0.5897 4.738643674926992 3.4504312438026523 9.478560341674555 0 0 0
329 0 2 0.5897 2.6799093332379185 0.6736544615587855 12.351841642841336 0 0 1
328 0 1 -1.1794 3.0011735081634567 1.6069314943433783 12.267890527160883 0 0 1
123 0 2 0.5897 8.372708904003412 1.1289558689217716 8.592141876224991 0 1 1
1304 0 2 0.5897 11.239783172653874 1.919169489551922 9.040223340914949 0 0 0
1303 0 1 -1.1794 11.400262517863968 1.0061356512651929 9.396527037747173 0 0 0
1305 0 2 0.5897 11.689244400297207 1.188200945755113 10.29413712861626 0 0 0
1824 0 2 0.5897 7.196536276455046 0.16974127222592514 10.753620673969566 0 -1 1
1052 0 2 0.5897 7.9371689328059425 3.025563059854221 10.571835315395687 0 0 0
1388 0 2 0.5897 9.292923837402268 1.867040788700467 12.403390188182389 0 0 1
387 0 2 0.5897 11.468537574336205 1.4207407321454832 12.286125317534944 0 2 -2
1051 0 1 -1.1794 8.816211697445821 3.148118021920951 10.987417512614282 0 0 0
1794 0 2 0.5897 10.008189923962753 3.877837010072268 9.935346273957444 0 0 1
1053 0 2 0.5897 8.79152099563792 3.9805275828097892 11.53413318249523 0 0 0
122 0 2 0.5897 9.30802762178462 0.3657694164023553 9.61684308013362 0 1 1
121 0 1 -1.1794 8.408392338246147 0.3602689993829068 9.227433127564328 0 1 1
70 0 1 -1.1794 4.238384690074165 4.046104796237343 8.897601158031524 0 0 0
1271 0 2 0.5897 1.1156407536536315 5.146639862592343 8.660008269736837 0 0 0
1613 0 2 0.5897 4.5599797643772675 5.864227129404789 8.72045713941643 0 0 -1
1612 0 1 -1.1794 4.354664667580798 6.766202233277243 8.974478456269706 0 0 -1
1071 0 2 0.5897 2.5184258588380013 6.708474159514799 9.596952347751195 0 0 0
1069 0 1 -1.1794 1.5946037125360628 6.65716905682935 9.407192097172734 0 0 0
87 0 2 0.5897 5.226287062527456 6.752756290896671 10.358904279342042 0 0 0
1847 0 2 0.5897 2.1999954432446165 4.860974287271554 12.032445175342986 0 1 0
85 0 1 -1.1794 5.912430400691675 6.836611891540139 11.072329190007705 0 0 0
86 0 2 0.5897 5.5516788185263195 6.306945917579429 11.82422568098325 0 0 0
1848 0 2 0.5897 2.3012451726984997 6.500618855398487 12.394760397755618 0 1 0
1070 0 2 0.5897 1.1485389556972474 6.939679394016462 10.196844615917275 0 0 0
628 0 1 -1.1794 12.232032261813552 6.774305727708241 11.605249568197259 0 0 0
630 0 2 0.5897 11.807407917134109 6.687615198642822 12.480262392313863 0 0 0
1792 0 1 -1.1794 10.789771029878134 4.115869649080552 9.378185530817243 0 0 1
1353 0 2 0.5897 11.25237325773553 7.078115870089822 10.161561499300552 0 -1 0
1793 0 2 0.5897 10.67464297604139 5.089095534147931 9.441819617596511 0 0 1
298 0 1 -1.1794 7.890692588332403 7.460669581859618 9.595748688505987 0 0 1
299 0 2 0.5897 7.390394101724198 7.108620607538115 10.368152553550026 0 0 1
300 0 2 0.5897 8.863228761921016 7.359418676090749 9.721294768654491 0 0 0
1351 0 1 -1.1794 10.662633819216712 7.129088249134147 9.403536105860152 0 -1 0
1352 0 2 0.5897 11.180427332855082 7.669653874190697 8.738753210881768 0 -1 0
1010 0 2 0.5897 9.24988758050001 6.487139862152464 12.368017860312134 0 -1 0
1035 0 2 0.5897 1.3794144018715513 8.076135763755383 8.418419790297785 0 0 1
2085 0 2 0.5897 2.993311968591919 8.92091383020867 11.58590979681357 0 1 -1
1772 0 2 0.5897 2.739672529062635 10.552310167383615 9.7495945468077 0 -1 0
2024 0 2 0.5897 4.815257473119244 10.133103470993188 9.289425968370564 0 0 0
2023 0 1 -1.1794 4.1279887000290385 10.616226302510793 8.74831602293657 0 0 0
1771 0 1 -1.1794 2.357715630829393 10.206377476803242 10.608265898488558 0 -1 0
1773 0 2 0.5897 1.3737085734363261 10.13205203522714 10.483657650808075 0 -1 0
2025 0 2 0.5897 4.399869108077648 11.566092911420654 8.900611611102306 0 0 0
33 0 2 0.5897 5.799174513043916 8.673294433057468 10.977822565303592 0 -1 1
31 0 1 -1.1794 5.962092540631607 9.629971274110927 10.911245139276573 0 -1 0
2083 0 1 -1.1794 2.844175948459062 8.280776825616837 12.335384478279392 0 1 -1
1041 0 2 0.5897 2.514006254940761 11.334965582271227 11.778147664260404 1 -1 -1
1039 0 1 -1.1794 2.731459188736854 11.964491492842363 12.491491145654756 0 -1 -1
1092 0 2 0.5897 5.6096247341656715 10.759790967613002 12.377749077762825 0 0 -1
1908 0 2 0.5897 10.893562134743574 9.939082759132315 8.575217128822008 0 -1 -1
1906 0 1 -1.1794 11.065749849477744 10.63633124022524 9.167818197998727 0 -1 -1
1151 0 2 0.5897 9.452639616693688 10.664872131337344 10.296806589088803 0 0 0
1150 0 1 -1.1794 8.70480169896873 10.653453008643849 10.901024484994592 0 0 0
32 0 2 0.5897 6.895842230764094 9.622489437111495 10.841231324851671 0 -1 0
1152 0 2 0.5897 8.865445671429436 11.289812443672071 11.58510903310777 0 0 0
1932 0 2 0.5897 8.857906166223144 8.875300703946497 11.657388469312613 0 -1 -1
1907 0 2 0.5897 11.89406041603016 10.328305327499189 9.556690605654723 0 -1 -1
1930 0 1 -1.1794 9.207960424501485 8.303108668781054 12.34667265206915 0 -1 -1
105 0 2 0.5897 1.5522615537631106 12.305522352854497 8.455222360149417 0 0 0
270 0 2 0.5897 5.269094523993389 13.702070830944681 8.417102964587826 0 0 0
1993 0 1 -1.1794 2.1738723196051577 13.803118386553352 9.299192816063334 1 0 0
268 0 1 -1.1794 5.098474204745815 13.08977273905243 9.171521093456922 0 0 0
269 0 2 0.5897 5.7482609863440235 13.122115754612153 9.87315925555534 0 0 0
1994 0 2 0.5897 3.0762046840224264 13.981391241251986 9.508326112026872 1 0 0
347 0 2 0.5897 6.051157109179988 14.719410984017488 11.699350856383825 0 0 1
1058 0 2 0.5897 2.3851172135956187 15.183765447662228 12.055932681514683 0 0 -1
1995 0 2 0.5897 1.684286317268153 13.987348643944193 10.12732248793273 1 0 0
348 0 2 0.5897 6.319421171358432 13.30940622157876 12.315729216482753 0 0 1
1059 0 2 0.5897 2.7668389186205316 13.760718566351828 12.378428709315672 0 0 -1
660 0 2 0.5897 11.809566347320626 12.413913511598757 8.619516494927039 0 -1 0
346 0 1 -1.1794 6.696210278931013 13.97225422106138 11.70541348001181 0 0 2
659 0 2 0.5897 11.539492032074554 13.873413647999575 8.411589586462512 0 -1 0
2052 0 2 0.5897 11.700743081592464 14.419877371175367 10.423176991586082 0 -1 0
1579 0 1 -1.1794 8.409458858363672 13.891039411283925 9.479889769265299 0 1 -1
1580 0 2 0.5897 9.328051184250988 13.909298508525973 9.815072156775255 0 1 -1
1581 0 2 0.5897 7.834309898901738 13.939344457240345 10.29876420333838 0 1 -1
2050 0 1 -1.1794 10.946613778771994 14.72315272633966 9.902205055319504 0 -1 0
2051 0 2 0.5897 10.909867688887722 15.665907128071831 9.850045368451905 0 -1 0
1020 0 2 0.5897 2.59492000134067 19.91967275572968 10.004384470624084 0 -1 0
1281 0 2 0.5897 5.123139216547929 19.628357787088724 9.647338227504832 0 1 -1
1279 0 1 -1.1794 4.348849538064982 19.751212801186586 9.062319479936615 0 1 -1
2111 0 2 0.5897 1.1149344188153723 16.97677952442311 10.584809899064497 0 0 0
1280 0 2 0.5897 4.094736824033468 18.892132849429746 8.630327015317052 1 0 -1
2110 0 1 -1.1794 2.071660232081504 16.745976980182096 10.669342349437395 0 0 0
2183 0 2 0.5897 4.828783540101446 16.79462861896391 9.470404094151323 0 0 0
2112 0 2 0.5897 2.599057865768435 16.87424630667539 9.817065832604044 0 0 0
2182 0 1 -1.1794 4.178920933198869 17.03519642385131 8.750962261617266 0 0 0
1516 0 1 -1.1794 5.7397134059808534 16.500799168719272 10.986991939056328 0 0 -1
1517 0 2 0.5897 5.481266342882475 17.10706797661385 11.736965301750454 0 0 -1
140 0 2 0.5897 2.5581967586877346 18.257538897395555 12.106998334920943 0 -1 0
2039 0 2 0.5897 1.1468590519078152 18.837450866298163 8.715179448881903 0 1 0
1823 0 2 0.5897 5.983867960553748 19.704389991851624 11.797334698976549 0 -2 1
1533 0 2 0.5897 11.732341005711728 19.74400154457076 8.377095159868352 1 -1 1
1139 0 2 0.5897 10.802742230112827 17.653057886981763 8.665782735887797 0 0 0
291 0 2 0.5897 8.72066400249455 16.352552986275647 11.423157100449261 0 -3 -1
1140 0 2 0.5897 11.58937532654145 18.054047386563806 9.909555571521334 0 0 0
1138 0 1 -1.1794 10.800736317857814 17.567977538835958 9.644505922651213 0 0 0
290 0 2 0.5897 9.039587546339963 17.509549258708624 10.389849470788663 0 -3 -1
289 0 1 -1.1794 8.360428433865113 17.15578092318643 11.011888758720868 0 -3 -1
1518 0 2 0.5897 6.698137305310207 16.738880687562045 10.990797400317481 0 0 0
1113 0 2 0.5897 1.2720022653038767 3.0954080541855307 14.933403900313818 0 0 -1
1111 0 1 -1.1794 1.2744557221192772 2.1433523726830543 14.771552606308237 0 0 -1
48 0 2 0.5897 1.725534713790036 0.6513934443703665 16.06806321355479 0 1 -1
1112 0 2 0.5897 1.793371787167469 2.0833845242021867 13.919964494783944 0 0 -1
610 0 1 -1.1794 5.085245443683998 1.4886725571809576 14.059727394986405 0 0 -1
612 0 2 0.5897 4.446230497103134 1.5280033125133277 13.323091631475616 0 0 -1
611 0 2 0.5897 4.829421701193018 0.7766844999200955 14.653367057517555 0 0 -1
551 0 2 0.5897 4.935843741584521 2.8640177145628103 15.146612513026513 0 0 -1
550 0 1 -1.1794 4.861831448792234 3.5386091548726655 15.84955039382754 0 -1 -1
552 0 2 0.5897 5.596310204673181 3.4545378153520314 16.526368287898094 0 -1 -1
2101 0 1 -1.1794 4.865438146885923 0.016780495811850926 16.479877327030287 0 -1 0
1387 0 1 -1.1794 9.855771544909222 1.2168749832191923 12.787268610558813 0 0 1
2147 0 2 0.5897 7.2693211799986335 1.7818170603703778 15.069222819458407 0 2 -1
1389 0 2 0.5897 9.828758734236825 1.2761775530599946 13.745927313654386 0 0 1
2146 0 1 -1.1794 8.200496812527115 1.8714751751965666 15.272243068579368 0 2 -1
2148 0 2 0.5897 8.422181669799041 1.289357162888202 16.004596059998388 0 2 -1
2045 0 2 0.5897 11.854657300256282 2.231385745454705 15.76518402324446 0 -1 -1
2044 0 1 -1.1794 10.958947901571605 2.531996156183438 15.551887839843994 0 -1 -1
2046 0 2 0.5897 11.152339546953584 3.2918559593859094 14.987579346275057 0 -1 -1
554 0 2 0.5897 8.094183746438746 3.700198934037327 15.262056511058983 0 1 2
1864 0 1 -1.1794 1.2680434327352665 4.876150929506241 15.015444711925525 0 1 -1
1846 0 1 -1.1794 2.4586133500722345 5.570780843928276 12.679846142915887 0 1 0
1866 0 2 0.5897 1.9520938594189792 5.0839637525558246 14.330524945265774 0 1 -1
131 0 2 0.5897 4.340622845288818 5.095827933438762 13.12376755964888 0 -1 1
130 0 1 -1.1794 5.288480468979834 4.938905378336726 13.036785046775421 0 -1 1
560 0 2 0.5897 4.646489977559662 5.509102844984287 15.801209748268976 0 0 -1
132 0 2 0.5897 5.585985631050744 4.6988584099377855 13.912209856260546 0 -1 1
1865 0 2 0.5897 1.5197940558686243 5.511747746054841 15.701587228805819 0 1 -1
559 0 1 -1.1794 4.5125000762641205 6.4162023911924155 16.005959429016556 0 0 -1
1625 0 2 0.5897 4.906688849358605 7.690609861222095 14.682545403840578 0 1 0
1345 0 1 -1.1794 1.754204536605129 7.109843282204805 16.4553036834356 0 0 -1
1346 0 2 0.5897 2.6835756025427058 6.942132480853486 16.651768465314845 0 0 -1
1009 0 1 -1.1794 9.137761810104754 5.5218125105769 12.54164635495918 0 -1 0
648 0 2 0.5897 11.579269174677231 5.652713340592051 14.880466526349892 0 2 -1
553 0 1 -1.1794 7.9132162285854 4.6104909097853986 15.093309984215017 0 1 2
1011 0 2 0.5897 8.45798812549622 5.493673235596646 13.215305856614446 0 -1 0
555 0 2 0.5897 8.221218542094999 5.16975756666073 15.839008102900626 0 1 2
647 0 2 0.5897 10.64029008853679 5.2231721116273695 13.730564950835424 0 2 0