LAMMPS data file via write_data, version 23 Jun 2022, timestep = 32902000

2268 atoms
2 atom types

0.8832686742607763 46.56743032570586 xlo xhi
0 20.047001 ylo yhi
0 20.857 zlo zhi

Masses

1 1.008
2 15.999

Atoms # full

66 0 2 0.5897 4.823366722827814 2.1397159557130037 2.6315641321244954 0 -1 0
64 0 1 -1.1794 4.485588673197514 2.542480000295291 3.4809556624724136 0 -1 0
65 0 2 0.5897 4.573758706654052 3.4514208478424298 3.4731519160738107 0 -1 0
61 0 1 -1.1794 5.13839745393202 0.41388998014929124 1.4418450828778793 0 1 0
29 0 2 0.5897 1.7274835666456214 0.4310366418804481 1.1146427558623262 0 0 1
1529 0 2 0.5897 2.095957478519889 3.6766283710307053 0.8246232725139065 0 0 0
516 0 2 0.5897 5.8472436974334565 3.804584919059834 1.0438591557234156 0 2 1
816 0 2 0.5897 1.3591803781248057 3.6791956993203567 2.916347288254417 0 1 1
28 0 1 -1.1794 1.028044731782249 0.3580821678954879 1.8212515027334877 0 0 1
814 0 1 -1.1794 1.1452030715154602 2.945320223987846 2.225764774456673 0 1 1
63 0 2 0.5897 4.48333405753345 0.2707364765849796 0.7866494347645062 0 1 0
515 0 2 0.5897 4.398616185366892 3.837767457234622 0.42858413812547896 0 1 1
514 0 1 -1.1794 5.360382503876917 3.7320017727648804 0.2441096608127482 0 2 1
1528 0 1 -1.1794 2.660286851675638 4.007719659380829 0.08197841274181687 0 0 0
1398 0 2 0.5897 7.739207499964754 2.538232806647118 1.939669162685048 0 1 1
565 0 1 -1.1794 10.707568119943547 2.243080690011994 2.7929989794760375 0 2 2
1396 0 1 -1.1794 7.454833515509015 3.518627508625503 1.94436395280129 0 1 1
1096 0 1 -1.1794 7.824684496256191 0.7196924186067529 1.9281328022679212 0 1 0
1097 0 2 0.5897 8.199631646469026 0.5186679723957011 1.0482953766922136 0 1 0
566 0 2 0.5897 9.738269604970212 1.989095984633019 2.867799204254831 0 2 2
567 0 2 0.5897 10.664565869894327 3.1909243923401105 3.032509583958409 0 2 1
1055 0 2 0.5897 10.253365215659091 0.2683884291140656 0.28844879628843795 0 0 1
1098 0 2 0.5897 6.868324849722064 0.5710084922850904 1.771896510612138 0 1 0
1274 0 2 0.5897 8.628230311381666 3.735482606127559 0.5692968150346372 0 0 1
1782 0 2 0.5897 11.412337023777964 3.323915605025036 0.5091908504974356 0 0 0
1403 0 2 0.5897 12.090337631009344 1.1311032165671557 1.6009280607824143 0 1 2
1402 0 1 -1.1794 11.962754353697958 0.3952799109072393 0.9255329655936355 0 1 2
1397 0 2 0.5897 7.815499606008074 4.003786410759468 2.7430374898342476 0 1 1
1273 0 1 -1.1794 9.448808532515926 3.858362698160124 0.07913847807164463 0 0 1
1780 0 1 -1.1794 12.23773668001519 3.5025603832364314 0.10616199307720932 0 0 0
884 0 2 0.5897 4.87721893468218 6.685526794507719 2.204295084838267 0 1 1
885 0 2 0.5897 4.354026865469507 7.439252875686601 1.0345994877088363 0 1 1
883 0 1 -1.1794 5.041234958370454 7.51487932187599 1.7084153220112235 0 1 1
1349 0 2 0.5897 1.9372554768240897 7.079275192098762 1.4720233178113848 0 0 0
587 0 2 0.5897 1.5856868040823966 5.86030795938253 3.2432644051014954 0 0 0
2128 0 1 -1.1794 4.383638611931654 5.386789431237653 3.917489359829749 0 0 1
586 0 1 -1.1794 1.6848343038985178 5.103468669802542 3.915933123197291 0 0 0
1348 0 1 -1.1794 1.2953694985078807 7.182426571045374 2.1545596706256673 0 0 0
850 0 1 -1.1794 3.1845599582819966 6.586558657568655 0.05230317318184996 0 -1 1
1638 0 2 0.5897 6.771133773424655 7.392170722711635 1.4705134926512613 0 -1 -1
1637 0 2 0.5897 8.283881594071522 6.928637676109063 0.8924161205211951 0 -1 -1
1636 0 1 -1.1794 7.718813071414344 7.189276376703504 1.6551694766601226 0 -1 -1
90 0 2 0.5897 10.972965676589126 6.785317397801391 0.8455843738603931 0 -2 1
1368 0 2 0.5897 8.046265675891576 5.867151179856609 3.0742987310201833 0 0 -1
1023 0 2 0.5897 10.848990032907416 5.544290944748851 2.593969192179356 0 0 0
1021 0 1 -1.1794 11.007668440614854 4.97714619640221 3.3938492384203385 0 0 0
1366 0 1 -1.1794 8.244174711615075 5.10817640879345 3.6573137616341698 0 0 -1
88 0 1 -1.1794 11.477159430971325 7.048407343175382 1.6157852917919682 0 -2 1
1022 0 2 0.5897 11.859748718195657 5.3075063848203134 3.7624072043959487 0 0 0
1367 0 2 0.5897 9.18306040469891 5.164237906439182 3.9578142814973485 0 0 -1
1617 0 2 0.5897 4.8159274444290965 8.822601549513479 2.9513364079142668 0 -2 -1
1616 0 2 0.5897 4.800209764590314 10.26993088315346 3.51637160157878 0 -2 -1
1615 0 1 -1.1794 4.914096448430901 9.359341330680982 3.764852229502528 0 -2 -1
1254 0 2 0.5897 2.3200829155147717 10.065849047484514 0.9972633892993119 1 0 1
78 0 2 0.5897 4.618134073674403 10.134062512810294 0.5991947737714581 0 1 0
2247 0 2 0.5897 1.2846856365091863 11.38546365277797 3.5170895738062393 1 0 0
76 0 1 -1.1794 5.552341262382452 10.42729365848561 0.3861472620708304 0 1 0
13 0 1 -1.1794 4.377675126878008 11.974805796298185 3.201334281583721 0 -1 0
1252 0 1 -1.1794 2.991947510545914 10.062188399623784 0.3139943252391526 1 0 1
77 0 2 0.5897 6.180228934037809 10.140983331713063 1.0461858366441934 0 1 0
355 0 1 -1.1794 1.2899443844452991 10.014515174675235 2.4482953007209955 0 0 1
356 0 2 0.5897 1.4360757891714035 9.021688362573018 2.7091488039339238 0 0 1
1434 0 2 0.5897 10.708649339271519 8.588438081745284 1.9404414457563657 0 2 1
1433 0 2 0.5897 10.810693454625827 9.992877361200359 1.381194576934856 0 2 1
1074 0 2 0.5897 7.686663995693776 9.217533700726754 1.7789347891241691 0 2 1
1072 0 1 -1.1794 7.894925178511214 10.125749024421216 1.9347564149632541 0 2 1
1073 0 2 0.5897 8.860176838905076 10.119962331398025 1.9998966616155904 0 2 1
422 0 2 0.5897 7.823470688845633 11.499955219817986 3.3226661841932534 0 0 0
1432 0 1 -1.1794 10.531755828756001 9.519837987375423 2.1713844095221084 0 2 1
229 0 1 -1.1794 10.966156347263514 11.892392720564033 3.5547451238859167 1 -1 -3
230 0 2 0.5897 10.828282628991788 11.017837053725897 3.176798999831756 1 -1 -3
1064 0 2 0.5897 9.701268592724592 8.170779137832909 3.8254463417163214 0 0 1
2245 0 1 -1.1794 1.5485553681862563 12.136697370429838 4.05403762602708 1 0 0
15 0 2 0.5897 3.5013651819203297 12.218070207261341 3.5477788883788706 0 -1 0
14 0 2 0.5897 4.7069015212562535 12.690939007525325 2.6359204791407223 0 -1 0
107 0 2 0.5897 4.462411517540357 14.857259404561816 1.8347901134534244 0 0 0
106 0 1 -1.1794 4.8927503347752115 14.048570054246886 1.613972366991593 0 0 0
806 0 2 0.5897 1.9218150785942556 13.532986796569068 1.3644101343084072 0 0 0
108 0 2 0.5897 5.845448330715167 14.253137073129269 1.4538482050621633 0 0 0
807 0 2 0.5897 1.7290788604149672 13.73077213480943 2.91346153136433 0 0 0
1766 0 2 0.5897 3.8716849796333035 13.361975738040337 0.3126197698682313 0 -1 0
2097 0 2 0.5897 1.4869104197563305 15.841666567656773 2.5242674531000353 0 -1 1
1758 0 2 0.5897 5.013058971746865 15.573841843555392 3.8919398987657727 1 -1 1
805 0 1 -1.1794 1.4693821898276367 14.062421732008845 2.019961597776205 0 0 0
421 0 1 -1.1794 8.20671291146283 12.31210629374313 3.7150814251550446 0 0 0
176 0 2 0.5897 11.423935559918386 13.510292054617151 2.4612498259272884 0 -3 -2
1031 0 2 0.5897 7.857247857671896 13.568413539303506 2.495017288137862 0 -1 2
1032 0 2 0.5897 8.455708334578699 14.1461618825378 1.2058412934830702 0 0 2
1030 0 1 -1.1794 7.720581603433707 14.2539865173995 1.8006694557537561 0 -1 2
177 0 2 0.5897 11.489495209770238 15.008979188516216 2.1581612132451906 0 -3 -2
175 0 1 -1.1794 11.73558588899466 14.17631926986417 1.8184267212361684 0 -3 -2
881 0 2 0.5897 8.005000167871916 15.928358966699292 2.5200504229374285 0 -1 1
398 0 2 0.5897 10.466242219976897 13.83092876534698 0.42661946889417024 0 -1 -2
1756 0 1 -1.1794 4.353370757887241 16.070537682175512 3.3851374350130343 1 -1 1
1757 0 2 0.5897 3.606614312923883 16.21409452565562 4.0125790259567005 1 -1 1
2096 0 2 0.5897 1.4898744686132424 17.32017494480277 3.2010000286431834 0 -1 1
62 0 2 0.5897 5.044612160292518 19.873167489023647 2.1791050431575947 0 0 0
2267 0 2 0.5897 2.3616378343783735 17.084134145185754 0.623515014875726 1 0 0
1602 0 2 0.5897 4.923494233381017 17.984564520805762 3.1250164501990962 0 0 0
1600 0 1 -1.1794 4.763275864168925 18.857663893995007 3.4678410987100987 0 0 0
371 0 2 0.5897 6.0694101136699485 17.26461906724843 1.5203433199277268 0 0 2
1815 0 2 0.5897 1.3760817778241292 19.474010694667108 3.2750559966783013 0 -1 0
372 0 2 0.5897 4.689086266900026 17.515685070789704 0.7102770258756422 0 0 2
370 0 1 -1.1794 5.601590922356623 17.294613964900154 0.6390072693284006 0 0 2
1813 0 1 -1.1794 1.6757851318355028 19.007131879227178 4.08014822882462 0 -1 0
1814 0 2 0.5897 2.631835430074247 19.08040955373554 4.127097280349596 0 -1 0
2095 0 1 -1.1794 1.377509236381858 16.770746124375485 2.394476564600441 0 -1 1
913 0 1 -1.1794 11.043552352521447 16.250522078539387 3.5563998034031896 0 -1 0
914 0 2 0.5897 10.103244059141556 16.234030647644943 3.932046661084359 0 -1 0
2126 0 2 0.5897 8.28739561223325 19.755179910426598 3.5365436982940346 0 -1 0
880 0 1 -1.1794 7.904000970316072 16.86474626811482 2.2617528751624616 0 -1 1
882 0 2 0.5897 8.349223974155965 17.41468930357852 2.9253931644930726 0 -1 1
44 0 2 0.5897 11.547295068123342 19.212777556387277 2.4441375090509028 0 -3 1
1437 0 2 0.5897 8.841638676731687 17.059775203365657 0.5156824833530358 0 0 -2
43 0 1 -1.1794 11.276227101832738 18.77476887263515 3.264876131861762 0 -3 1
1631 0 2 0.5897 11.435687926370745 17.133335696699778 0.36858817932369853 0 -1 -1
45 0 2 0.5897 10.403419886362192 19.084641571989852 3.4241348726653666 0 -3 1
915 0 2 0.5897 11.125460103325615 17.21018899125179 3.442608199088319 0 -1 0
513 0 2 0.5897 2.745085555817075 2.027764860739835 4.492371290080266 0 0 0
1364 0 2 0.5897 5.449797461184381 1.8860423522960024 4.9593519508587995 0 -2 -1
511 0 1 -1.1794 2.383351419047057 1.8066593663132233 5.318142172249211 0 0 0
2063 0 2 0.5897 2.899126653189747 3.472635408194621 6.032345259408811 0 0 1
1365 0 2 0.5897 5.614653221175497 2.3966386600764347 6.574868870071501 0 -2 -1
1143 0 2 0.5897 3.0511529378767195 0.5842967536996929 6.27423021114586 0 1 1
1363 0 1 -1.1794 5.843451520069406 1.6950986997673922 5.881612766701494 0 -2 -1
1142 0 2 0.5897 2.4213573897796032 0.29146577968363674 7.68821495229718 0 1 1
1877 0 2 0.5897 4.487477892510331 3.930376982881154 7.486649137494967 0 0 1
1876 0 1 -1.1794 5.467055394951499 3.6190723309052584 7.545291411069367 0 0 1
512 0 2 0.5897 1.4286143449793496 1.8085748505175558 5.3058790686534 0 0 0
1141 0 1 -1.1794 3.1093669882892327 0.011027846509094275 7.0483184277933555 0 1 1
1272 0 2 0.5897 2.0411858772140974 3.370022449532534 8.01929034532919 0 0 0
1048 0 1 -1.1794 12.21267582132007 3.7637403957244473 6.839695462366674 0 -4 1
74 0 2 0.5897 7.858529314508631 2.0105601496828767 5.385098739618712 0 -1 0
73 0 1 -1.1794 8.592180961937633 2.3551241764319726 4.897193070595344 0 -1 0
75 0 2 0.5897 8.884528517651017 3.120902364724274 5.402820068279028 0 -1 0
1604 0 2 0.5897 10.989966921963314 0.5092049095090428 7.693578456376143 0 -1 1
152 0 2 0.5897 9.425156500355193 0.838679861647451 6.045520962124772 0 1 1
200 0 2 0.5897 8.934363684819253 3.740136420369308 7.600569050072351 0 0 -1
153 0 2 0.5897 8.968762607256544 0.27685285646105245 7.465768816039847 0 1 1
2046 0 2 0.5897 11.556072257076929 1.4182709231697193 4.4694663942300705 0 -1 -2
199 0 1 -1.1794 9.494553925233257 3.9927250081338004 6.848808359350253 0 0 -1
201 0 2 0.5897 10.408501087890055 3.6815813178008425 6.977672657837478 0 0 -1
151 0 1 -1.1794 9.632666256067557 0.2661306999504444 6.789358972683442 0 1 1
2044 0 1 -1.1794 11.953328692509437 1.3748760869904046 5.334377539163942 0 -1 -2
1049 0 2 0.5897 12.252460076639164 2.859602247371949 6.46741239827474 0 -4 1
2130 0 2 0.5897 3.4835704728965213 5.574277304956722 4.273616814264839 0 0 1
2129 0 2 0.5897 5.104411264167754 5.466745980244079 4.5470584265391265 0 0 1
2062 0 1 -1.1794 2.96766270971756 4.113074725406427 6.752964019629322 0 0 1
1878 0 2 0.5897 5.91138469904947 4.340693497299762 7.16585077754211 0 0 1
2064 0 2 0.5897 2.9137421465045 5.021752027730958 6.383110093245083 0 0 1
244 0 1 -1.1794 2.974161559481287 6.821772528518272 6.798484317363363 1 0 0
245 0 2 0.5897 3.786884468636542 6.849521091160119 7.333741851091781 1 0 0
246 0 2 0.5897 2.3034866538743968 6.850083260157495 7.488705972800289 1 1 0
1330 0 1 -1.1794 6.585239678269379 5.551250906509838 5.9259206288368045 0 0 0
1331 0 2 0.5897 6.570340776746542 6.536227840754432 5.968000433035442 0 0 0
588 0 2 0.5897 1.1201374153479253 5.239203880496435 4.692364198165453 0 0 0
1332 0 2 0.5897 7.264762398844499 5.274122225445893 5.261080427167375 0 0 0
928 0 1 -1.1794 9.457209369685248 6.519710702310579 6.766269354152759 0 -2 1
929 0 2 0.5897 9.389742764946469 5.534831068721656 6.689106114290743 0 -2 1
930 0 2 0.5897 8.665730217135167 6.953488386377187 7.151780301922485 0 -2 1
1667 0 2 0.5897 10.931850267804599 6.786850877702185 7.7705311311118885 0 0 2
1065 0 2 0.5897 9.547339759856348 7.589136781384964 5.238192315886536 0 0 1
506 0 2 0.5897 2.8421097202368015 8.11326587986048 5.678344257711165 0 0 1
2246 0 2 0.5897 1.0089449818576357 12.007521499241056 4.836309970185258 1 -1 0
507 0 2 0.5897 3.1413747602381465 8.927547901895652 4.351035423681986 0 0 1
505 0 1 -1.1794 2.479933216653447 8.82768839984407 5.069849049446801 0 0 1
639 0 2 0.5897 3.058943361861147 10.177199886291357 6.144808406951905 0 -1 0
637 0 1 -1.1794 3.182600178036929 10.517152170244923 7.057323879668863 0 -1 0
1762 0 1 -1.1794 5.841198746394074 10.2701178971191 7.108762068225497 1 0 0
638 0 2 0.5897 4.128483857727919 10.462903349396441 7.186545227476473 0 -1 0
1764 0 2 0.5897 6.027321947946118 9.449948348860799 6.582398248064355 1 0 0
6 0 2 0.5897 6.208543303504592 8.509950646818625 4.6598919112442605 0 0 2
1355 0 2 0.5897 5.91155367809248 11.840676826455367 6.183475928284421 0 -1 0
1763 0 2 0.5897 6.583857214117153 10.364208520936147 7.730235635037744 1 0 0
4 0 1 -1.1794 6.865390412794332 8.267778823157245 5.305880592896903 0 0 2
1063 0 1 -1.1794 9.547272499252935 8.429087387475686 4.748405633400405 0 0 1
5 0 2 0.5897 7.7633104801550665 8.470666348716088 4.908254748946453 0 0 2
1618 0 1 -1.1794 10.019157806415729 10.482877077549972 6.765740882493175 0 -5 0
1620 0 2 0.5897 9.622697093548812 9.921212178559987 6.07501088723127 0 -5 0
1619 0 2 0.5897 9.928188158967023 11.422391469771759 6.380058191027559 0 -5 0
1293 0 2 0.5897 12.094901809843304 10.425887110886052 7.366147755124281 0 1 1
776 0 2 0.5897 11.837759003572689 9.258118087170377 4.906675767029131 0 0 -2
393 0 2 0.5897 8.663237098015909 10.55525644732964 7.930652397971549 0 -2 0
1356 0 2 0.5897 5.1413609556713995 12.294231642276731 5.050289112510683 0 -1 0
1354 0 1 -1.1794 5.947649630294144 12.507120960340263 5.460355952705088 0 -1 0
2120 0 2 0.5897 2.874943745459693 12.327516767786596 6.389485238741079 0 0 -1
2121 0 2 0.5897 2.809485603141873 13.864095358913588 6.032513468707 0 0 -1
2119 0 1 -1.1794 3.109019982332329 13.238179714104403 6.698751808234752 0 0 -1
51 0 2 0.5897 4.425611779612133 13.839471679367604 7.835064039465734 0 0 -1
1267 0 1 -1.1794 6.269667921805792 15.150618004134992 5.308722421911357 0 -2 1
334 0 1 -1.1794 2.2344215805901966 15.312413628822647 5.2518748749970285 0 0 1
1269 0 2 0.5897 5.935614381594355 14.256219441119285 5.53043928810812 0 -2 1
335 0 2 0.5897 1.2184749687677128 15.41320844836485 5.364618982075033 0 0 1
1268 0 2 0.5897 6.027947251956685 15.812676943419183 6.064830753055624 0 -2 1
1106 0 2 0.5897 1.7932719359765237 13.461295822507326 7.962328681016624 0 0 0
336 0 2 0.5897 2.544008729851452 15.938335130354488 5.923290631115456 0 0 1
50 0 2 0.5897 5.8988334573486165 14.282378845615984 8.142077696981188 0 0 -1
231 0 2 0.5897 10.211335729891346 12.140755685080151 4.1938892377972286 1 -1 -3
423 0 2 0.5897 7.867584189813382 12.299973845421858 4.611004742448015 0 0 0
2053 0 1 -1.1794 10.016945903871306 13.197574412052578 6.026207733046753 0 0 1
2054 0 2 0.5897 9.678089117981557 13.89203058202675 5.485085609057802 0 0 1
2055 0 2 0.5897 10.851481945148253 13.631402682097457 6.41877145160306 0 0 0
1384 0 1 -1.1794 8.948193469238095 15.504035167882977 5.035580428624286 0 0 0
1386 0 2 0.5897 8.01501809755272 15.41313374855657 5.135670722701489 0 0 0
1259 0 2 0.5897 8.423394532368107 14.067216598842233 7.512995981556458 1 -1 0
799 0 1 -1.1794 11.876656628869437 14.041406546337809 7.815937554807656 0 -1 0
1260 0 2 0.5897 8.133568703486565 15.464405068195477 8.295846562703241 1 -1 0
801 0 2 0.5897 11.576690275917528 13.249897129000486 8.25124216052444 0 0 0
342 0 2 0.5897 11.941070428213965 15.37936102133538 4.69642887213575 0 -1 1
1026 0 2 0.5897 4.539048849836092 19.984596158013893 8.190978544745395 0 0 0
524 0 2 0.5897 5.846855810822069 19.979612601052388 6.00777251325007 0 -1 0
1601 0 2 0.5897 5.249199064090729 18.88296673899594 4.318859597929374 0 0 0
1513 0 1 -1.1794 5.6553802119016385 16.729906299991164 7.338726068650126 0 -1 -1
1514 0 2 0.5897 4.696400181751471 16.70195838137247 7.554158825564271 0 -1 -1
1483 0 1 -1.1794 2.8948533923728212 17.014763366084388 7.273227477799595 1 0 0
1485 0 2 0.5897 2.8764745983598567 17.965138863517712 7.041664824087151 1 0 0
1484 0 2 0.5897 2.2757228897969237 16.885903376389454 8.022367356222263 1 0 0
525 0 2 0.5897 5.770131680889856 18.48683462081121 6.345327762074741 0 -1 0
523 0 1 -1.1794 6.071129769556394 19.094685363192593 5.6557501463296 0 -1 0
1515 0 2 0.5897 6.126173888403088 17.231862277993525 8.01528023206938 0 -1 -1
2125 0 1 -1.1794 8.628931887269317 19.195625417929012 4.270718253278313 0 -1 0
1385 0 2 0.5897 9.199430762919253 16.2371403735494 5.6441736182240545 0 0 0
2127 0 2 0.5897 7.8647555977292285 19.11544208527658 4.86079125193071 0 -1 0
2106 0 2 0.5897 11.038268373903065 17.408520143064532 6.813204888917194 0 0 -3
2104 0 1 -1.1794 10.072376003135428 17.477110859174054 6.632692384861519 0 -1 -3
2105 0 2 0.5897 9.817386096269871 18.437197050601068 6.557584781183235 0 -1 -3
1577 0 2 0.5897 8.813611432083542 17.356140956955517 8.127965857991413 0 0 -1
508 0 1 -1.1794 1.0569385713213852 0.5148493694218991 8.752457100447838 0 -1 0
1270 0 1 -1.1794 1.3195693698125992 3.3220909948514428 8.644892777508131 0 0 0
848 0 2 0.5897 1.6068957454300798 2.021722297122192 11.877941154216268 0 1 0
71 0 2 0.5897 5.1999921359898735 1.6702658679279025 9.666448128436366 0 0 0
70 0 1 -1.1794 5.112376092105044 2.2222360477949987 10.450088965053832 0 0 0
72 0 2 0.5897 5.592030487613041 1.806896966892205 11.19681722845982 0 0 0
849 0 2 0.5897 3.167972579457508 2.069877349672511 11.539970475108428 0 1 0
847 0 1 -1.1794 2.482083019243101 2.0923921612772878 12.204466672427188 0 1 0
1271 0 2 0.5897 1.5228240647263354 3.9651645107534925 9.404968739253313 0 0 0
510 0 2 0.5897 1.2439420870376132 1.5119504243545754 8.696998029536605 0 -1 0
590 0 2 0.5897 7.128666120705785 0.5447927867954685 8.764074626915844 0 0 0
1603 0 1 -1.1794 11.591708030761634 0.5085227744999686 8.52355010956179 0 -1 1
377 0 2 0.5897 6.728077974942064 3.363855621355212 8.694825780754735 0 0 -1
589 0 1 -1.1794 8.053715860587069 0.6667741298531292 8.836292620833607 0 0 0
378 0 2 0.5897 7.882074268146428 2.4837542633817877 9.236258727466812 0 0 -1
344 0 2 0.5897 11.394147384472387 2.178202408769676 9.437809395606156 0 1 -3
1919 0 2 0.5897 9.40727772705781 2.551743006818518 11.265329055800864 0 2 -2
343 0 1 -1.1794 11.326965572448957 2.6989408930077143 10.288544729777838 0 1 -3
1920 0 2 0.5897 8.09267950666825 2.158586805727027 12.06003458657631 0 2 -2
1918 0 1 -1.1794 9.027821357882937 2.4741326685148004 12.123666172218188 0 2 -2
376 0 1 -1.1794 7.713210292792085 3.39763695564919 8.933151858405548 0 0 -1
345 0 2 0.5897 11.411911670263434 3.634729380210228 10.03337521354298 0 1 -3
1070 0 2 0.5897 1.1438590113317295 5.378507578707123 11.226680084436326 0 0 0
266 0 2 0.5897 5.782912556452463 7.274087872303545 8.506632631408495 0 1 1
265 0 1 -1.1794 4.85744981971693 6.927546260257557 8.743011721654783 0 1 1
1613 0 2 0.5897 4.514890415295889 4.025512742252781 9.960555126236075 0 0 -1
1069 0 1 -1.1794 1.6533568408430106 5.413655125091336 10.324057577163888 0 0 0
1071 0 2 0.5897 2.5809973354796063 5.1338094149726174 10.54673762654146 0 0 0
1612 0 1 -1.1794 4.218093809936851 4.872176062581117 10.250706194980028 0 0 -1
1614 0 2 0.5897 4.4679824651454165 5.499686879843244 9.51675117172083 0 0 -1
86 0 2 0.5897 5.168824791834487 5.6379751903837345 11.782987839365402 0 0 0
85 0 1 -1.1794 5.941776834125082 5.9399876098339 12.238170257347354 0 0 0
1035 0 2 0.5897 1.1066054294483334 6.581507678904777 8.989912678270947 0 0 1
1033 0 1 -1.1794 1.0138305707664752 7.358035349593046 8.372448041463375 0 0 1
267 0 2 0.5897 4.66072296845391 7.6791862922667145 9.327533659970305 0 1 1
1666 0 1 -1.1794 11.547598175072215 7.042138019000458 8.430723313030978 0 0 2
640 0 1 -1.1794 7.727062222662337 7.496604466516523 8.626837583165525 0 1 -1
300 0 2 0.5897 11.669705657886706 5.5332833230696865 11.288945194684409 0 0 0
1799 0 2 0.5897 8.02181987632662 4.805809258002848 10.023396746129926 0 1 -1
1798 0 1 -1.1794 8.13352249558265 5.506045297305727 10.655540884380164 0 1 -1
641 0 2 0.5897 7.9677807331578645 7.024576122731184 9.369717814492004 0 1 -1
1800 0 2 0.5897 9.073531991839587 5.547807561518006 10.802320850226762 0 1 -1
299 0 2 0.5897 11.370687955736816 5.978725868655244 9.794347635531004 0 0 1
298 0 1 -1.1794 11.177606373896772 5.296451939921371 10.478710313190328 0 0 1
87 0 2 0.5897 6.722850583460056 5.731440903218823 11.69657966864489 0 0 0
1034 0 2 0.5897 1.0849197706346494 8.154524869293562 8.924060934703359 0 0 1
104 0 2 0.5897 2.304837698758952 10.117645092766185 8.74727159258325 0 0 0
1771 0 1 -1.1794 2.46266428208105 9.265723908127095 12.381819481821045 0 -1 0
105 0 2 0.5897 1.7256862176686059 10.620428507085494 10.067541461781929 0 0 0
1773 0 2 0.5897 1.4738327590216038 9.159281043258297 12.176996737773576 0 -1 0
1772 0 2 0.5897 2.9273533424377023 9.260960515163383 11.57078126640593 0 -1 0
2024 0 2 0.5897 5.143524021599149 8.93063620496914 11.105709011675858 0 0 0
2023 0 1 -1.1794 4.386631152464839 9.078223369979066 10.449279432701907 0 0 0
2025 0 2 0.5897 4.6087009988652134 9.911311949240389 10.046532604413288 0 0 0
103 0 1 -1.1794 1.6245578633411202 9.898251470932749 9.405517311890941 0 0 0
31 0 1 -1.1794 6.023978523001852 8.603882935929677 12.47447080538204 0 -1 0
268 0 1 -1.1794 4.831288020660414 11.873787704919677 10.174478908097592 0 0 0
269 0 2 0.5897 5.432105660267109 11.928448917330421 10.957179236049504 0 0 0
642 0 2 0.5897 8.04326808246061 8.389822428118809 8.767994125750144 0 1 -1
837 0 2 0.5897 11.24428107168245 9.0141597153929 10.556100674402096 0 -1 1
836 0 2 0.5897 10.840218019134612 8.886977747378525 9.070567600757185 0 -1 1
875 0 2 0.5897 9.055034374704105 9.337435852989032 10.934964742270562 0 -1 -1
391 0 1 -1.1794 8.102196287396957 10.153806933773653 8.64804744767314 0 -2 0
392 0 2 0.5897 7.942101431330756 10.8597469440243 9.295905081389044 0 -2 0
1290 0 2 0.5897 10.960516243505937 11.201693491306802 9.524941151053778 0 -3 0
835 0 1 -1.1794 10.842080573609715 9.488494276648783 9.803762490893492 0 -1 1
874 0 1 -1.1794 8.679242462400575 9.156102234722011 11.817142384585845 0 -2 -1
32 0 2 0.5897 6.973763574931857 8.776148362503536 12.332819480401797 0 -1 0
876 0 2 0.5897 8.912025585710829 9.951117592641772 12.343131135856893 0 -2 -1
841 0 1 -1.1794 12.188019351334097 8.437951124486666 11.869453612876727 0 0 0
1993 0 1 -1.1794 2.3573181281535356 12.275309472413507 10.784192183103231 1 0 0
1994 0 2 0.5897 3.326212381728805 12.181452476573318 10.766453064392582 1 0 0
49 0 1 -1.1794 5.048774685846173 14.152901968267322 8.5364026746204 0 0 -1
1995 0 2 0.5897 1.9491293997027124 12.039962192539717 11.621427289160453 1 0 0
1107 0 2 0.5897 1.3580883889398356 13.093285180646605 9.462074871105175 0 0 0
270 0 2 0.5897 5.0916765910468476 12.65823793677453 9.670118067709723 0 0 0
2184 0 2 0.5897 4.9538411091813535 15.274697016269224 9.816518189445032 0 0 0
2112 0 2 0.5897 3.156662147582689 15.402728913719217 11.348364513007889 0 0 0
2183 0 2 0.5897 5.456224971826947 15.580167844336298 11.281560874741631 0 0 0
2040 0 2 0.5897 1.005315153072391 15.419024038487574 9.439843880344757 0 1 0
1105 0 1 -1.1794 1.150819659452092 13.65579678361806 8.662335199046954 0 0 0
2182 0 1 -1.1794 4.691054403213101 15.728474010378827 10.62363021215336 0 0 0
2110 0 1 -1.1794 2.3846979615229493 15.39330066470266 12.008560558324318 0 0 0
1288 0 1 -1.1794 10.94542286375958 12.187997136228365 9.448304094264927 0 -3 0
1258 0 1 -1.1794 8.108826880092304 14.415312099792178 8.35236800545575 1 -1 0
1289 0 2 0.5897 10.012063187734894 12.381156331835353 9.62598305474421 0 -3 0
1579 0 1 -1.1794 8.35565190121867 12.347044890925094 10.07612164853252 0 1 -1
1581 0 2 0.5897 7.806437964395043 12.186091815918513 10.885008166495842 0 1 -1
800 0 2 0.5897 11.899852550990934 14.70572507411523 8.555149613275349 0 -1 0
1580 0 2 0.5897 7.8246576750042856 12.983901398789213 9.6049464173133 0 1 -1
1810 0 1 -1.1794 9.381713723491059 15.717723172228377 11.222882969430206 0 -4 0
1812 0 2 0.5897 10.29028988579118 15.680424186661984 10.861496180195195 0 -4 0
1207 0 1 -1.1794 11.792062852720726 15.820202532723872 10.00176993222475 0 1 2
1516 0 1 -1.1794 6.760762303049465 15.129729756843908 12.341676799291188 0 0 -1
346 0 1 -1.1794 6.595830991043379 12.188374089304688 12.466559736815327 0 0 2
1517 0 2 0.5897 7.613028780403649 15.374809122642612 11.971200429668594 0 0 -1
1796 0 2 0.5897 11.830725126367412 12.52772793972729 10.871547133955804 0 1 -3
1024 0 1 -1.1794 5.382988112735392 19.913730661247232 8.70168289788534 0 0 0
1025 0 2 0.5897 5.1289973023514355 19.386480942027433 9.449338377856751 0 0 0
2038 0 1 -1.1794 1.0841306411509564 16.348404778544257 9.278615940575829 0 1 0
1018 0 1 -1.1794 1.6799343855353221 18.796696018221386 10.424049238349921 0 -1 0
1280 0 2 0.5897 4.554850029353207 17.315009637761474 10.576693468513852 1 0 -1
1279 0 1 -1.1794 4.395039869566335 18.28133830411445 10.561471542188052 0 1 -1
1281 0 2 0.5897 3.4418142298262646 18.47363693067772 10.588330124993867 0 1 -1
1823 0 2 0.5897 5.56289316741864 18.579007727282413 11.921336665236899 0 -2 1
1020 0 2 0.5897 1.6619700096166976 19.573061392480756 9.830418044561766 0 -1 0
2039 0 2 0.5897 1.405858337187205 16.671478838151902 10.113331444199103 0 1 0
1019 0 2 0.5897 1.020940881361914 19.076996080468295 11.105823975810665 0 -1 0
1822 0 1 -1.1794 6.263394610366046 19.020920764817895 12.467631263815022 0 -2 1
1061 0 2 0.5897 11.78888871039875 18.707268673548267 11.247952425890443 0 -2 2
591 0 2 0.5897 8.381261033276717 19.95889762426509 9.384439626317427 0 -1 0
1576 0 1 -1.1794 7.985616928269149 17.183749663280878 8.622805743656041 0 0 -1
1062 0 2 0.5897 11.416077390280288 19.112539323106002 9.820161524388377 0 -2 2
1208 0 2 0.5897 11.877245514024839 16.76748680103023 10.022194343196459 0 1 2
1578 0 2 0.5897 8.107028237634633 17.570556590135975 9.524911578101335 0 0 -1
119 0 2 0.5897 9.405895445527502 18.88683147007983 11.008504176677029 0 -2 0
1060 0 1 -1.1794 11.228343292163675 18.4711575550423 10.527668793122592 0 -2 2
118 0 1 -1.1794 8.428118586583256 18.7713084159441 10.760950451262783 0 -2 0
120 0 2 0.5897 7.7999779625628936 18.843544145473285 11.505138606483785 0 -2 0
1811 0 2 0.5897 9.342722239677254 16.4682868694231 11.809489619841814 0 -4 0
817 0 1 -1.1794 6.533299489386789 1.5947275721204932 12.532951482162785 0 1 0
1111 0 1 -1.1794 1.2549654242242012 0.7756092736207185 15.842039920738005 0 0 -1
818 0 2 0.5897 6.5662486440308 0.713534225629207 12.951515263790544 0 1 0
1847 0 2 0.5897 2.74913678624811 3.8528458757318598 13.059941938787142 0 1 0
819 0 2 0.5897 6.320779215461659 2.2928611710834934 13.158097311025307 0 1 0
610 0 1 -1.1794 5.120807982835657 0.14451540542492355 15.577485706193045 0 0 -1
330 0 2 0.5897 3.2160261064346733 0.4699976754551008 13.021335344253801 0 0 1
1866 0 2 0.5897 1.8712330331189961 3.7654838223862703 15.0309942886095 0 1 -1
1112 0 2 0.5897 1.7604432949299635 0.46820709466869626 15.055948391044705 0 0 -1
132 0 2 0.5897 4.821695630460983 3.831190930517062 13.872243502574976 0 -1 1
1864 0 1 -1.1794 1.1151052189495965 3.572868051338983 15.604332290567703 0 1 -1
1113 0 2 0.5897 1.23746755318746 1.7951086278188477 15.770899120287892 0 0 -1
612 0 2 0.5897 4.434515222365448 0.09487178500086821 14.90865790929037 0 0 -1
554 0 2 0.5897 6.499790022724455 3.5919493311716355 15.772113957667598 0 1 2
130 0 1 -1.1794 5.76839282845395 3.7248277725778056 13.914444512318438 0 -1 1
328 0 1 -1.1794 3.1355874150599248 0.007356685350628407 13.89585381294063 0 0 1
2147 0 2 0.5897 6.784540623321429 0.7133778218057294 15.393658136764838 0 2 -1
1015 0 1 -1.1794 11.433742699979353 0.48483058550970703 15.612876809832024 0 0 2
302 0 2 0.5897 9.82930707929234 0.9212019798688609 12.991145795566887 0 0 0
555 0 2 0.5897 7.610037395886307 2.6104581274804564 16.119273037274915 0 1 2
2146 0 1 -1.1794 7.72691702325485 0.7400030441697633 15.556008895624743 0 2 -1
788 0 2 0.5897 10.743806002444346 2.101192220926054 15.746429312717579 1 1 2
2093 0 2 0.5897 9.764621681003264 3.8157450423235892 13.033637851747601 0 1 1
2148 0 2 0.5897 8.191466368673504 0.610473404953643 14.694384781719242 0 2 -1
787 0 1 -1.1794 10.30514482105845 2.955941553597272 16.011269702582545 0 1 2
303 0 2 0.5897 10.650777764308444 0.2495123886557804 14.18278020103121 0 0 0
301 0 1 -1.1794 9.93929678117706 0.09835520601394236 13.483591865658443 0 0 0
789 0 2 0.5897 9.959962270284667 3.3678981227756686 15.2257968116942 0 1 2
553 0 1 -1.1794 7.247779860597251 3.4052328365278295 16.413660931786378 0 1 2
20 0 2 0.5897 11.608247036615849 3.897925196882057 13.95445626528645 0 1 -1
55 0 1 -1.1794 1.102092219853137 7.171177369684981 15.534717342608783 0 0 0
33 0 2 0.5897 6.061173660690368 7.593401954017744 12.555988119961022 0 -1 1
1846 0 1 -1.1794 3.109854990063819 4.274245911750551 13.854203961489056 0 1 0
2085 0 2 0.5897 2.8888708431125956 7.7454755924697976 13.063245779266378 0 1 -1
1848 0 2 0.5897 3.0696966269683084 5.250327116593116 13.683802967806725 0 1 0
2083 0 1 -1.1794 3.1432935634960635 6.959699027954878 13.654008208038551 0 1 -1