LAMMPS data file via write_data, version 23 Jun 2022, timestep = 40000000

2268 atoms
2 atom types

0.9016935977201079 46.54900540224449 xlo xhi
0 20.047001 ylo yhi
0 20.857 zlo zhi

Masses

1 1.008
2 15.999

Atoms # full

1528 0 1 -1.1794 3.1920820550259608 1.7551594760495839 2.5131724882123003 0 0 0
515 0 2 0.5897 5.220252433928876 1.8735066347754143 2.9032109817814487 0 1 1
514 0 1 -1.1794 6.20703036903823 1.856434561077997 2.726812503568279 0 2 1
1529 0 2 0.5897 2.41011015496653 1.6552388431915097 3.0905736402168924 0 0 0
1530 0 2 0.5897 3.129888015037957 1.050968946051344 1.9000360592834957 0 0 0
852 0 2 0.5897 2.9300784737958687 3.407485256861637 1.5468017547709574 0 0 1
1400 0 2 0.5897 6.1382078193089304 3.431038760986682 1.4772995494720624 0 1 1
1362 0 2 0.5897 6.152383292481827 0.44104040326767263 1.4132479581675008 0 -1 1
1399 0 1 -1.1794 6.26546332854074 3.894882162624861 0.6366643255644187 0 1 1
516 0 2 0.5897 6.676660254861608 1.397452309443334 3.4246917816979927 0 2 1
1275 0 2 0.5897 8.421450631304854 2.4170039474101603 1.5859203924986398 0 0 1
1273 0 1 -1.1794 9.158879056062084 2.4027780409583412 2.1723623425988965 0 0 1
1274 0 2 0.5897 9.577153911345562 3.2452348473754578 2.263550034830748 0 0 1
1397 0 2 0.5897 8.813866842512919 1.4880953802673338 3.4668114585834107 0 1 1
548 0 2 0.5897 11.683383986209055 1.1634055043324525 2.99825962415273 0 3 1
1662 0 2 0.5897 11.042673778553507 3.624553357881132 0.11618389893120333 0 1 1
850 0 1 -1.1794 2.8667897759238956 4.3309971602131 1.837308882849929 0 -1 1
851 0 2 0.5897 2.739826201098322 4.956627884694355 1.0957926070389468 0 -1 1
885 0 2 0.5897 4.367665698259708 4.824650861810913 2.650902299615512 0 1 1
1349 0 2 0.5897 1.4056301919517962 4.714511245807698 2.9040125169406537 0 0 0
883 0 1 -1.1794 5.030474242739222 5.002764361063685 3.344765388288843 0 1 1
884 0 2 0.5897 4.744649099593225 4.370723011739453 4.020644499329436 0 1 1
1406 0 2 0.5897 6.584762459072146 7.307559339215438 1.454818802999037 0 1 0
1401 0 2 0.5897 6.397468305046422 4.885054568119961 0.7932166384856869 0 1 1
2122 0 1 -1.1794 2.3012466259666544 6.221963018324635 0.12011757799928097 0 -1 0
1253 0 2 0.5897 3.1882871000570887 7.314562402146267 1.5852181015715452 1 0 1
355 0 1 -1.1794 1.1321406265531135 7.929145782901736 3.7711530361879793 0 0 1
1407 0 2 0.5897 6.200567467924729 6.722575579956433 0.10969250472631431 0 1 0
356 0 2 0.5897 1.1309445629527153 6.948005359097047 3.960604975237071 0 0 1
1348 0 1 -1.1794 0.9549880061633941 5.195681975645091 3.6123099138070027 0 0 0
1405 0 1 -1.1794 6.728369960960086 6.5341777211134 0.8752637893105455 0 1 0
1638 0 2 0.5897 6.914191526675679 5.1339150273509535 3.51935200826361 0 -1 -1
760 0 1 -1.1794 10.186554495644815 4.743167352518119 3.159637522316256 0 -2 3
762 0 2 0.5897 10.817910258256054 5.2124795851427015 2.6064680023681874 0 -2 3
761 0 2 0.5897 9.407403584746683 5.30915346169705 3.12984333456815 0 -2 3
809 0 2 0.5897 8.390385651795729 6.4806880400287135 0.4143780704822567 0 0 -1
808 0 1 -1.1794 9.377612009262883 6.548116937276505 0.5395047232315576 0 0 -1
1053 0 2 0.5897 9.452594197498327 7.446961799769444 1.9701768742027632 0 0 1
390 0 2 0.5897 11.073748884760992 7.259381368015392 4.0249183215206426 0 -4 -2
810 0 2 0.5897 9.609935991701505 5.547510966353592 0.39195812933358526 0 0 -1
1051 0 1 -1.1794 9.802827335663828 7.656932593767842 2.8758714442910307 0 0 1
1052 0 2 0.5897 9.044419256494129 7.837648764560015 3.4138051631819697 0 0 1
1636 0 1 -1.1794 7.686284086230137 5.28790633984211 4.003613103818283 0 -1 -1
1619 0 2 0.5897 12.281402450338943 5.825746915193501 0.771643599262158 0 -5 0
1618 0 1 -1.1794 12.17196450233656 6.013318164826388 1.7155745114277279 0 -5 0
1254 0 2 0.5897 2.4105279234385684 8.13116452871114 2.495631941385306 1 0 1
1252 0 1 -1.1794 3.287690443718681 8.151698496443665 2.1179106396797183 1 0 1
76 0 1 -1.1794 5.9934426377528025 8.778573413757135 2.2504374909385976 0 1 0
78 0 2 0.5897 5.0181804797465634 8.66064035691415 2.3375641365644846 0 1 0
1767 0 2 0.5897 3.2247305827555524 10.058775795155896 1.7611889663988023 0 -1 0
1765 0 1 -1.1794 3.161466758828554 10.994388494620868 1.8479931731298338 0 -1 0
1766 0 2 0.5897 3.9169780675119443 11.263990213158039 2.421401018062386 0 -1 0
2100 0 2 0.5897 6.2515680544627585 10.191092925672937 1.2494039034321545 0 -1 0
2099 0 2 0.5897 6.587063282167009 11.703349774357877 0.6587071807144208 0 -1 0
2098 0 1 -1.1794 6.3120300094338475 10.783245117938767 0.42451092787104716 0 -1 0
77 0 2 0.5897 6.310694700272714 8.719650605665526 3.169890848464554 0 1 0
106 0 1 -1.1794 5.221969237902103 11.808556827613144 3.8217326525092767 0 0 0
806 0 2 0.5897 1.6714727929233002 11.12152248247308 3.086763586400467 0 0 0
805 0 1 -1.1794 1.111750219889328 11.253827485149941 3.863269580651814 0 0 0
429 0 2 0.5897 9.664461537942024 9.967424365540516 1.7235201505836188 0 -2 1
427 0 1 -1.1794 9.360236252941073 10.805423040293645 1.3191914907419242 0 -2 1
1284 0 2 0.5897 11.200298173388386 9.919736548102108 3.342634681781902 0 2 2
428 0 2 0.5897 8.934957850193529 10.687928369364972 0.4751913639001462 0 -2 1
1283 0 2 0.5897 12.122866576849606 11.116968741897793 3.3376948029961713 0 2 2
618 0 2 0.5897 10.508022984863736 11.9834250414415 0.8364530936344788 0 -1 -1
1282 0 1 -1.1794 11.27349865028063 10.880499153571796 3.6655558881511072 0 2 2
195 0 2 0.5897 12.195834826014876 9.202329770766765 0.4837857431127601 0 0 -1
193 0 1 -1.1794 12.14983863931776 9.04728071551502 1.467662948850579 0 0 -1
617 0 2 0.5897 11.883648342058732 11.724697328353983 0.5004109655010277 0 -1 -1
194 0 2 0.5897 11.911983319619457 8.125228998090366 1.6380036126733457 0 0 -1
108 0 2 0.5897 6.155884806099721 12.03370130685122 3.728068686607736 0 0 0
1892 0 2 0.5897 2.520491630670558 12.428914977743045 0.9065538635091197 0 0 1
2268 0 2 0.5897 2.8041120681522225 14.113827408565589 1.941006111624568 1 0 0
370 0 1 -1.1794 5.886750137559647 14.890673831091956 2.756468969431155 0 0 2
372 0 2 0.5897 4.934030075581774 14.810845913897301 2.9419812308932367 0 0 2
2267 0 2 0.5897 2.973938263071998 14.560395744972688 3.404950790151362 1 0 0
2266 0 1 -1.1794 3.2695870955836828 14.77755956449329 2.5284720237099307 1 0 0
371 0 2 0.5897 6.370435437065311 14.802479650667442 3.5933387511741754 0 0 2
2030 0 2 0.5897 6.018222788715571 14.007469787528207 0.717076166237157 0 -1 0
1891 0 1 -1.1794 2.2159744662778382 13.251434201785319 0.593084447677034 0 0 1
1893 0 2 0.5897 1.2381082307388742 13.279549495029258 0.5572868521588982 0 0 1
1031 0 2 0.5897 8.591606242397487 12.053079572804215 3.099879549155928 0 -1 2
1030 0 1 -1.1794 8.081803957359284 12.220583032243244 3.918018063687066 0 -1 2
2029 0 1 -1.1794 6.773003822000083 13.471020472133901 0.4175027379604086 0 -1 0
616 0 1 -1.1794 11.225386145077355 12.47101671486053 0.3939515572736167 0 -1 -1
1032 0 2 0.5897 8.122223061707126 13.177824270714343 4.093511301488356 0 0 2
2031 0 2 0.5897 7.525809433577487 13.742835256857038 0.9596629402864659 0 -1 0
163 0 1 -1.1794 9.224491368081024 14.126889748189948 1.8920562506173064 0 0 0
165 0 2 0.5897 10.120643184233506 13.783996089404821 1.7263246132785233 0 0 0
164 0 2 0.5897 9.27393451783928 15.109673512707618 2.0555674273636355 0 0 0
1435 0 1 -1.1794 12.025187370273569 15.878110435299341 3.5147665481221173 0 0 -2
1680 0 2 0.5897 11.739231031315356 14.610299099699054 0.06486803867947334 0 -2 0
1678 0 1 -1.1794 12.168766476085029 15.362433976175124 0.45337036670693487 0 -2 0
1360 0 1 -1.1794 6.292305729567354 19.83071984255754 0.7245358853583064 0 -2 1
333 0 2 0.5897 6.21490455663562 16.35208237354112 1.570349890125414 0 0 2
858 0 2 0.5897 2.989525793534108 18.155107629858044 1.181036481745859 0 0 0
856 0 1 -1.1794 3.0584277515491674 17.61261100337007 1.9935334187432059 0 0 0
857 0 2 0.5897 3.0461690802246566 16.637877713697645 1.7440160111098153 0 0 0
63 0 2 0.5897 4.3565922961247505 18.230373108852344 3.1375084323119617 0 0 0
61 0 1 -1.1794 4.98520888436663 18.43529321015262 3.7974628206794745 0 0 0
29 0 2 0.5897 1.6832274975613433 18.140333967044292 2.991737774649324 0 -1 1
331 0 1 -1.1794 6.235616839465854 16.890093627125744 0.8047126736368112 0 0 2
30 0 2 0.5897 1.1913269956593782 19.45688832757414 3.793509580795148 0 -1 1
28 0 1 -1.1794 0.968100143384005 18.490524281239967 3.576777077077208 0 -1 1
1361 0 2 0.5897 6.067661375686105 18.97787728652153 1.1021988951798178 0 -2 1
1093 0 1 -1.1794 2.6599084265694692 19.843074425796114 0.3458535121872048 0 -1 1
1094 0 2 0.5897 1.6828230208835628 19.886734140692177 0.18327037853272315 0 -1 1
1916 0 2 0.5897 10.044049874893792 19.59651906674276 2.4004496689109103 0 -1 0
1915 0 1 -1.1794 10.848975298795528 19.820784333145795 2.9096716847859416 0 -1 0
1437 0 2 0.5897 11.316183120453735 16.1033044188569 2.885920238753789 0 0 -2
1097 0 2 0.5897 8.110718844526962 19.255908214891363 3.760558075688874 0 0 0
1098 0 2 0.5897 6.811992184938552 18.35131030266448 3.5348827871777715 0 0 0
1917 0 2 0.5897 11.551480672959231 19.43036293992931 2.4317948228222015 0 -1 0
1169 0 2 0.5897 9.881816877514318 17.381674494408056 1.5867779664457844 0 -2 1
1170 0 2 0.5897 9.077215963961468 17.316857352393566 2.90013596703384 0 -2 1
1168 0 1 -1.1794 9.739077576925979 16.82598200832855 2.353941390019416 0 -2 1
1096 0 1 -1.1794 7.793326819923008 18.31789273120641 3.658234115998965 0 0 0
332 0 2 0.5897 7.0568772402448685 16.638915887524597 0.3533261767085786 0 0 2
902 0 2 0.5897 9.244317467225656 18.881527922564686 0.10046746393292355 0 0 -1
901 0 1 -1.1794 9.035683933939074 19.678281562110847 0.6567866334691262 0 0 -1
903 0 2 0.5897 8.031173741509729 19.852163064857205 0.472974629950639 0 0 -1
1389 0 2 0.5897 11.170543536356966 16.665489525558208 0.13916161706965613 0 -1 3
65 0 2 0.5897 4.75934591165232 1.5759198948340143 5.414098745331624 0 -1 0
2128 0 1 -1.1794 4.266200126298849 3.3357770380365004 5.643516675061643 0 0 1
2130 0 2 0.5897 3.3310406628940967 3.566044104317233 5.942356526630145 0 0 1
586 0 1 -1.1794 1.5051156917821342 3.674203041965454 5.860387537027431 0 0 0
2129 0 2 0.5897 4.768777124835459 3.5147988624170985 6.446114086545425 0 0 1
513 0 2 0.5897 2.956141551818149 0.06579738954290153 6.373874508074026 0 0 0
64 0 1 -1.1794 4.765636570649022 0.6371821198683832 5.675273975251164 0 -1 0
588 0 2 0.5897 0.9225759802982352 3.764982293313222 6.665922777975552 0 0 0
511 0 1 -1.1794 2.424165138645514 0.15387116682579158 7.138628310906032 0 0 0
1330 0 1 -1.1794 6.118732461605396 3.842592242254582 7.810337133692334 0 0 0
1365 0 2 0.5897 5.803885935173269 0.28304309777679393 7.22265190993625 0 -2 -1
1363 0 1 -1.1794 6.2752685756064475 0.11809416680204846 8.04005316154339 0 -2 -1
1396 0 1 -1.1794 8.319869584449917 1.004845952968372 4.181323197757467 0 1 1
404 0 2 0.5897 10.836224610466505 3.9168871246271895 4.7503415653606345 0 1 0
405 0 2 0.5897 11.614141753786049 3.0401496977413967 5.755762564484086 0 1 0
1398 0 2 0.5897 8.229968642975876 1.6531053769800967 4.885974305408678 0 1 1
74 0 2 0.5897 9.466287203813094 0.03332329994912797 6.377066044425006 0 -1 0
1367 0 2 0.5897 7.771211510813909 3.523169272571904 6.810979881298362 0 0 -1
1368 0 2 0.5897 9.22039341194473 3.2668768892530164 6.1242143469105 0 0 -1
1366 0 1 -1.1794 8.27812832554737 3.2380023747697924 6.02587817350109 0 0 -1
403 0 1 -1.1794 10.955404358394597 3.7129714748085205 5.726023055184561 0 1 0
200 0 2 0.5897 9.419325710017327 1.595880317669158 8.238352183745375 0 0 -1
587 0 2 0.5897 1.2219644088172215 4.310334751508004 5.153580585868489 0 0 0
1617 0 2 0.5897 4.765091135172137 6.522801780571181 4.466370386422111 0 -2 -1
505 0 1 -1.1794 2.7366178749862153 6.727843906303544 7.409460096594677 0 0 1
507 0 2 0.5897 3.4806165275340937 6.885805521988481 6.776870194006587 0 0 1
1615 0 1 -1.1794 4.728750693128525 7.004607114271812 5.306506246852784 0 -2 -1
6 0 2 0.5897 5.88745110938739 6.865725289881926 6.476686147237482 0 0 2
506 0 2 0.5897 2.9394459111996074 5.884873046057524 7.852346235909782 0 0 1
1331 0 2 0.5897 6.2681565480162895 4.792282685465748 7.911879883386623 0 0 0
4 0 1 -1.1794 6.49967161323256 6.680378400014942 7.208255545669145 0 0 2
1616 0 2 0.5897 4.903135966815725 7.945816833719572 5.156526243454752 0 -2 -1
1074 0 2 0.5897 7.78328147129685 7.310685270447961 4.942211654794136 0 2 1
1637 0 2 0.5897 7.738795686446523 4.548829379547148 4.620099648443934 0 -1 -1
5 0 2 0.5897 7.36869137231519 6.707417765503278 6.811310562485837 0 0 2
388 0 1 -1.1794 11.60766528448869 7.4871003165072665 4.750495244228188 0 -4 -2
1063 0 1 -1.1794 9.22682024366213 6.817115972173394 6.533046586046774 0 0 1
1064 0 2 0.5897 10.076037504106454 6.856096484102916 6.035525173293409 0 0 1
1184 0 2 0.5897 9.481142533879753 5.649304899652045 7.944250772077876 0 3 2
2092 0 1 -1.1794 12.07550803980936 8.00315155554906 7.477578505091066 0 1 0
1065 0 2 0.5897 9.197232287312847 7.639895376081952 7.037123841285826 0 0 1
2261 0 2 0.5897 11.979970554531679 4.74129761798108 6.5738301828307755 1 0 -3
2093 0 2 0.5897 12.00935760532562 7.023860009563196 7.420983462089926 0 1 0
2246 0 2 0.5897 1.3211992620456368 9.80938984443739 6.640078128276594 1 -1 0
2245 0 1 -1.1794 1.8962085098446106 9.53542996266219 5.896461689113197 1 0 0
13 0 1 -1.1794 4.6275477365743996 9.719430913367402 5.6501230024504565 0 -1 0
15 0 2 0.5897 5.312799060584191 9.859711592086 6.379584938093906 0 -1 0
2247 0 2 0.5897 2.8161404521032356 9.679759636106683 6.184637901840291 1 0 0
14 0 2 0.5897 4.840764002693136 10.412329759883413 4.975460869408286 0 -1 0
807 0 2 0.5897 1.3344643849057753 10.528790076755596 4.513673747131788 0 0 0
357 0 2 0.5897 1.4219994523369717 8.356310833028843 4.575901322765693 0 0 1
1354 0 1 -1.1794 6.520763114081248 10.584978561096541 7.5780931470943464 0 -1 0
2121 0 2 0.5897 2.614410230311221 11.889752415732149 8.268997767663357 0 0 -1
1355 0 2 0.5897 6.471852934847132 9.803450427307812 8.17435440109529 0 -1 0
399 0 2 0.5897 11.296418826438279 10.873833799548411 5.442379453354366 0 -1 -1
1072 0 1 -1.1794 7.5687187715060595 8.221081658426762 4.560818891388818 0 2 1
1356 0 2 0.5897 7.337326758799035 10.429130433938644 7.097289655880365 0 -1 0
1073 0 2 0.5897 7.977876135743759 8.89820798758971 5.10456352132982 0 2 1
421 0 1 -1.1794 8.468891395631331 10.34563629677742 5.7713668540860255 0 0 0
423 0 2 0.5897 9.285948015499716 10.363334439125287 6.264658072599952 0 0 0
422 0 2 0.5897 8.559169850063295 11.092460121092115 5.203307905320335 0 0 0
397 0 1 -1.1794 11.493282973881602 11.089109796637302 6.406405859629554 0 -1 -2
398 0 2 0.5897 12.275093131529825 10.597085072811998 6.630676642542773 0 -1 -2
2094 0 2 0.5897 12.034631075188686 8.30524381577933 6.509376138413813 0 1 0
1579 0 1 -1.1794 9.48896390172645 8.946610911513627 8.220200279626736 0 1 -1
2097 0 2 0.5897 0.9814171769807545 13.189837391243467 4.524834643018207 0 -1 1
2095 0 1 -1.1794 1.0777936624683409 14.145510169487846 4.4363404500874895 0 -1 1
107 0 2 0.5897 4.939722479753487 12.579661041978099 4.328473739509011 0 0 0
1758 0 2 0.5897 4.708727991242892 13.85873056204424 6.240615417559852 1 -1 1
1757 0 2 0.5897 3.2264065662693358 14.2805269821755 5.851323044435263 1 -1 1
1756 0 1 -1.1794 4.155713044607104 14.447547184097802 5.68391910453347 1 -1 1
334 0 1 -1.1794 2.1211437912826576 13.539130073519052 7.381885968844403 0 0 1
336 0 2 0.5897 2.4624190512111337 14.188553985778123 7.980186263706424 0 0 1
1268 0 2 0.5897 5.9949141244078055 14.002655124700777 8.065291786563375 0 -2 1
335 0 2 0.5897 1.1269639009188566 13.638598778285672 7.431821208196701 0 0 1
1269 0 2 0.5897 6.263580587922743 12.571885711765692 7.445888747706194 0 -2 1
1267 0 1 -1.1794 6.24205250564248 13.509090441788304 7.218952406977069 0 -2 1
123 0 2 0.5897 10.97288934615982 14.474240367856789 4.216201267399484 0 -1 -2
880 0 1 -1.1794 7.136037199863576 14.58236426844764 4.933260792380939 0 -1 1
882 0 2 0.5897 7.423528054636639 15.402601754340742 5.3923165165466695 0 -1 1
122 0 2 0.5897 10.611612138168221 12.980136159565292 4.27155950347019 0 -1 -2
121 0 1 -1.1794 10.630455369597694 13.775487386969122 4.812865641463076 0 -1 -2
881 0 2 0.5897 6.980890660958213 13.99189124486055 5.719109196276754 0 -1 1
2106 0 2 0.5897 8.141253852300414 13.770009459686685 7.228527629900306 0 0 -3
2105 0 2 0.5897 9.28530108790375 13.976557145894601 6.170097188732058 0 -1 -3
2104 0 1 -1.1794 9.072220985985556 13.956187933186703 7.135154235357064 0 -1 -3
225 0 2 0.5897 9.422401398954984 15.271980625831143 8.301231679999837 1 -2 -3
1385 0 2 0.5897 10.137350165694139 12.423226602629683 8.213738111504222 0 0 0
918 0 2 0.5897 12.057102376128405 13.954990205809025 6.096796053219242 0 1 -2
62 0 2 0.5897 4.88887497884064 17.778449778901603 4.524064706533124 0 0 0
512 0 2 0.5897 1.5695041392789943 19.777202015622706 6.957960256308463 0 -1 0
1602 0 2 0.5897 4.5792125507469565 16.06558121321162 6.066546915871315 0 0 0
66 0 2 0.5897 4.749313382345008 20.043416617775407 4.959718255994176 0 -2 0
1600 0 1 -1.1794 4.587143481479035 17.03842490904376 5.9472610556230165 0 0 0
1813 0 1 -1.1794 1.8223287745485675 17.10994068329266 5.903575421394232 0 -1 0
1814 0 2 0.5897 2.7536050780519243 16.95867880783493 5.742958159950403 0 -1 0
1601 0 2 0.5897 5.200227094477739 17.43446546771009 6.535508721118812 0 0 0
1815 0 2 0.5897 1.4711585046446853 17.551637176663206 5.102464203849102 0 -1 0
1143 0 2 0.5897 2.855126448045975 18.842487323732716 8.281944666744913 0 0 1
73 0 1 -1.1794 8.943899381840772 19.99095262369149 7.261339183513092 0 -2 0
75 0 2 0.5897 7.981961570286316 19.915429457411648 7.005523772888978 0 -2 0
1829 0 2 0.5897 12.061412202359783 17.33148335681752 7.51422558600638 0 2 2
523 0 1 -1.1794 6.62199279645224 17.625139927811905 8.113584477746565 0 -1 0
709 0 1 -1.1794 10.948474664599942 19.467555736474996 5.5573887605173375 0 -1 -3
711 0 2 0.5897 10.673942227197958 19.306704670457865 4.654799731614687 0 -1 -3
2076 0 2 0.5897 11.422130650219904 16.11978171405982 5.453092652579853 0 -2 1
2074 0 1 -1.1794 11.068882441043888 16.7166351651365 6.1352237357483475 0 -2 1
710 0 2 0.5897 11.204704069842546 18.596675770984582 5.876050449402832 0 -1 -3
2075 0 2 0.5897 10.088085037791043 16.601612304369255 6.026788117277801 0 -2 1
2125 0 1 -1.1794 8.174070173600308 16.90138780063331 6.080984091703247 0 -1 0
2126 0 2 0.5897 7.892791711628194 17.496973199012203 5.39432292270964 0 -1 0
2127 0 2 0.5897 7.670632145734323 17.150080936512914 6.886657329916571 0 -1 0
1332 0 2 0.5897 6.038467863702061 3.4517415127843547 8.736042292889502 0 0 0
1364 0 2 0.5897 6.504166291076048 0.8975367933470348 8.551332224561959 0 -2 -1
2063 0 2 0.5897 2.797411297161241 1.2537684766412969 8.596796386438015 0 0 1
1272 0 2 0.5897 1.6123770615271114 1.5670449440379735 10.700324428007354 0 0 0
2062 0 1 -1.1794 2.7609642220397363 1.7221109286318874 9.401715063542754 0 0 1
2064 0 2 0.5897 3.0248569149204516 2.639826339014174 9.10308004111358 0 0 1
71 0 2 0.5897 4.018809022709508 1.2522108060474493 10.786545324379306 0 0 0
70 0 1 -1.1794 4.6162738633384865 1.1049373098557451 11.50054471836043 0 0 0
72 0 2 0.5897 4.968053399391272 0.17800287068546417 11.43856561640537 0 0 0
1878 0 2 0.5897 6.412388247353857 1.941110197659708 10.608490253856827 0 0 1
1270 0 1 -1.1794 0.9812949936517896 1.268745721732234 11.364377326440405 0 0 0
1271 0 2 0.5897 0.9609844642169882 1.9560386123087563 12.057087702838315 0 0 0
1876 0 1 -1.1794 6.741543781080524 2.1264333772639827 9.698704019213894 0 0 1
150 0 2 0.5897 11.492624120106203 2.3465679895569442 8.597161669656566 0 -2 -1
1877 0 2 0.5897 7.6807726243202925 2.1929419447062957 9.780058950211746 0 0 1
199 0 1 -1.1794 9.554699052501357 2.362576543942518 8.810660433194188 0 0 -1
201 0 2 0.5897 9.611250679032555 3.2196794429798095 8.430260823923666 0 0 -1
303 0 2 0.5897 10.247845526165806 1.5147944709986794 10.535825560229679 0 0 0
301 0 1 -1.1794 10.831047506031506 0.9875352119571681 11.139483933504211 0 0 0
302 0 2 0.5897 11.41721342703603 0.45294596463173853 10.614263825480217 0 0 0
377 0 2 0.5897 8.123917068214505 0.14401105680709358 12.297598334799792 0 0 -1
1614 0 2 0.5897 4.516425454978956 4.040756832702643 12.265396713027469 0 0 -1
244 0 1 -1.1794 3.04722229639679 4.32627002622764 8.919653527264336 1 0 0
1035 0 2 0.5897 1.6527909845761786 5.08126514085983 11.528538937840306 0 0 1
245 0 2 0.5897 3.796890809073455 4.623210264661611 9.428850021723079 1 0 0
246 0 2 0.5897 2.2872132232696374 4.661833514535781 9.41358616522169 1 1 0
265 0 1 -1.1794 4.963047902542598 5.076794788182159 11.122643926800954 0 1 1
267 0 2 0.5897 4.745470531608733 6.03027487728609 11.227617318315355 0 1 1
1034 0 2 0.5897 1.5141909570836856 6.46599094802969 11.146438629514194 0 0 1
266 0 2 0.5897 5.919071849036832 4.993232377503602 10.933193896673378 0 1 1
1033 0 1 -1.1794 1.3801775505102052 5.606416318808498 10.773110993261042 0 0 1
2023 0 1 -1.1794 5.197709682219523 7.413063431400192 12.208425248398727 0 0 0
1764 0 2 0.5897 6.457689729504807 7.769552619132826 8.435037077584823 1 0 0
1629 0 2 0.5897 11.889607955223244 5.382209645679629 10.608264524837898 0 1 0
1914 0 2 0.5897 12.08224564722646 4.160542716046049 12.196516505761904 0 -4 1
1185 0 2 0.5897 10.189920237699129 5.329948791347914 9.184204123766072 0 3 2
1898 0 2 0.5897 7.939891158723996 4.6666321969466695 11.294074037671685 0 -1 1
1897 0 1 -1.1794 7.664173203952523 5.120115542480623 10.488501447444813 0 -1 1
1899 0 2 0.5897 8.384203209042546 5.039158377111553 9.836854896887688 0 -1 1
1183 0 1 -1.1794 9.423621314856895 5.001830959943861 8.659588898147929 0 3 2
1817 0 2 0.5897 7.933584598770551 7.100669695086426 11.08209891480684 0 0 -1
1628 0 2 0.5897 11.723556675388252 6.84196949647515 10.224456147379465 0 1 0
1627 0 1 -1.1794 11.486554806312789 5.946196794411101 9.939872043142028 0 1 0
639 0 2 0.5897 3.170215596655488 8.110922824946242 8.535719658953857 0 -1 0
103 0 1 -1.1794 1.6422131886233304 8.214083328659417 11.382290022474791 0 0 0
104 0 2 0.5897 2.279117623334684 8.290798774376887 10.628802394872052 0 0 0
2119 0 1 -1.1794 3.1788258610605102 11.43720629851337 8.918105282145987 0 0 -1
2120 0 2 0.5897 3.2692992435788906 10.515660670047277 8.728642280763266 0 0 -1
1762 0 1 -1.1794 6.170865337585393 8.429607010659195 9.059617135263132 1 0 0
105 0 2 0.5897 1.9538707011041194 8.949995616778317 11.929337329829599 0 0 0
638 0 2 0.5897 4.408235575646113 8.55822090078957 9.451586986257535 0 -1 0
637 0 1 -1.1794 3.446404327303699 8.691956664078148 9.2887035144051 0 -1 0
1107 0 2 0.5897 1.6728515467663128 11.63674898920032 11.72463911574845 0 0 0
1106 0 2 0.5897 1.7939858117578686 11.840215767568171 10.195431490876889 0 0 0
2025 0 2 0.5897 5.043372190380643 8.383636265528732 12.305879747878409 0 0 0
270 0 2 0.5897 5.3332526899704575 10.736614856754452 11.964622570731086 0 0 0
51 0 2 0.5897 4.609177673942855 11.908181725612742 9.78708388185972 0 0 -1
49 0 1 -1.1794 5.232770747313388 11.836909784494864 10.526682876888737 0 0 -1
801 0 2 0.5897 12.171655764103157 9.081310789835397 10.180918164271423 0 0 0
1763 0 2 0.5897 6.783462632149498 8.373672278554738 9.80331940476233 1 0 0
799 0 1 -1.1794 11.454005895936497 9.642896131184463 10.428374473117564 0 -1 0
1816 0 1 -1.1794 8.163998764954233 8.030469070989623 10.872848540647352 0 0 -1
1581 0 2 0.5897 10.474319767723944 8.872109801500196 8.408108210057502 0 1 -1
1818 0 2 0.5897 8.15865330788037 8.504020571940293 11.702285469669363 0 0 -1
1386 0 2 0.5897 10.048199703035133 11.112450241968805 8.854541173577317 0 0 0
1580 0 2 0.5897 9.117872976184094 8.850466197957996 9.090603501620196 0 1 -1
800 0 2 0.5897 11.476125037244786 9.494389011806453 11.38033058400141 0 -1 0
842 0 2 0.5897 8.236886149968072 11.234159152807704 12.049292730990263 0 0 0
1014 0 2 0.5897 12.10369889982076 11.48217842315013 10.174461136238506 0 -1 3
50 0 2 0.5897 6.048487029799503 12.213256674249674 10.261792752209661 0 0 -1
2038 0 1 -1.1794 1.1190731368755313 14.96909475793378 11.435975559526673 0 1 0
1105 0 1 -1.1794 1.286483118101869 12.243970526816607 10.965099518946204 0 0 0
2039 0 2 0.5897 1.0737334782998245 15.608260540165121 12.253568677452908 0 1 0
2184 0 2 0.5897 4.821307118282986 12.970775036667325 11.779386417406059 0 0 0
1484 0 2 0.5897 2.268503346024498 15.264886372700206 10.109586972745541 1 0 0
1513 0 1 -1.1794 5.5494242707826995 14.743491928860665 9.488919995215108 0 -1 -1
1514 0 2 0.5897 4.585377309638667 14.847899111298158 9.675313255258125 0 -1 -1
1483 0 1 -1.1794 2.8672321338866573 15.415068170643146 9.327887968996706 1 0 0
1280 0 2 0.5897 4.53508379748736 15.571002896652073 12.250984921042745 1 0 -1
1515 0 2 0.5897 6.113869928360159 15.160918988761122 10.14704173156156 0 -1 -1
2040 0 2 0.5897 1.0388112143187953 14.022939581503756 11.63492108977032 0 1 0
2182 0 1 -1.1794 4.814897160521108 13.64473377588879 12.459655369022371 0 0 0
1384 0 1 -1.1794 10.248940877947518 12.049070108323761 9.063424308025917 0 0 0
2055 0 2 0.5897 8.653568745859797 12.446501340050006 9.957978020306514 0 0 0
2053 0 1 -1.1794 7.882074276790657 12.503791661732478 10.593856939565978 0 0 1
1278 0 2 0.5897 11.531334043623467 14.762747642228451 9.210593201673337 0 0 1
360 0 2 0.5897 10.650171857472253 12.88354163088495 11.47062098746857 0 -3 -1
358 0 1 -1.1794 10.427767448953963 13.560345577050631 12.11645934948289 0 -3 -1
2054 0 2 0.5897 7.833698976025116 13.534675982274115 10.725011919566986 0 0 1
359 0 2 0.5897 11.134972997221778 14.236273716964238 12.094444173393006 0 -3 -1
1843 0 1 -1.1794 7.920627888931721 15.10242792774604 10.856447793942532 0 -2 2
1844 0 2 0.5897 8.726282363008213 15.410037511267399 10.374072246690202 0 -2 2
223 0 1 -1.1794 9.859366315049614 15.633617323083614 9.070275725864597 1 -2 -3
1845 0 2 0.5897 8.32357816349559 15.33039389252111 11.658402865022058 0 -2 2
510 0 2 0.5897 1.1849588983135946 19.694444731939626 11.095673122818699 0 -2 0
525 0 2 0.5897 6.573955159012253 17.07043640012613 8.86349321554731 0 -1 0
524 0 2 0.5897 6.576231587817737 18.569683043772613 8.395317328715636 0 -1 0
508 0 1 -1.1794 1.2032253771341208 18.707958885757485 10.887226631797926 0 -2 0
1020 0 2 0.5897 1.3451141956283812 17.716067485933664 12.42683115045944 0 -1 0
1485 0 2 0.5897 2.836191377144448 16.384286453762854 9.223648612887203 1 0 0
1024 0 1 -1.1794 5.103402447847103 18.4705060272036 10.604576335874993 0 0 0
1026 0 2 0.5897 4.607816967426699 18.281416994797105 9.752868954454415 0 0 0
1142 0 2 0.5897 2.3652209998043334 18.3913677268078 9.723503836758288 0 0 1
1141 0 1 -1.1794 3.0497155617203338 18.25793476065687 9.056163974162486 0 0 1
1025 0 2 0.5897 4.819561403870287 17.708013828177318 11.217547157529522 0 0 0
152 0 2 0.5897 9.397650353061584 19.077555407916435 8.873575264046396 0 0 1
1181 0 2 0.5897 11.241840804291543 17.560413101614447 10.465988562709104 0 0 0
590 0 2 0.5897 6.822599575630023 18.558218956739665 11.112986346359001 0 -1 0
224 0 2 0.5897 9.781641342227273 16.582487854850065 9.046717642284646 1 -2 -3
153 0 2 0.5897 8.904488509753811 18.321019198781656 10.16457731068022 0 0 1
151 0 1 -1.1794 9.595446113883114 18.31508571260538 9.464986063310178 0 0 1
589 0 1 -1.1794 7.747415569795369 18.36117809474736 11.333796709099158 0 -1 0
591 0 2 0.5897 7.639309552053541 18.032676526374818 12.250888042942666 0 -1 0
1911 0 2 0.5897 10.430311886493673 16.62057203856476 12.35016877765977 0 1 -3
1180 0 1 -1.1794 11.638208352154955 16.944463205625855 11.09848406778105 0 0 0
1182 0 2 0.5897 12.25194505426533 16.330348522692162 10.659309729715977 0 0 0
1613 0 2 0.5897 4.456531308055099 2.5225039059970786 12.746748192134945 0 0 -1
1069 0 1 -1.1794 1.655533409764328 3.76999045029956 12.95018786951738 0 0 0
1612 0 1 -1.1794 4.31455845816402 3.445062700567129 13.060972255094562 0 0 -1
1847 0 2 0.5897 3.124326776132467 1.7571979344153759 15.096062672250993 0 1 0
1848 0 2 0.5897 3.096697723365154 3.043380808649941 15.872424808275808 0 1 0
1846 0 1 -1.1794 3.106822697868507 2.1124824446474206 15.959403595172585 0 1 0
1071 0 2 0.5897 2.5814632197526004 3.6713838433780888 13.16749931545955 0 0 0
849 0 2 0.5897 3.1865589642776038 0.32340715842585144 13.153690248462796 0 1 0
818 0 2 0.5897 6.194189074388064 0.9739038163367515 15.505577364926552 0 1 0
132 0 2 0.5897 5.994469229194683 3.012376173469687 15.92448493087611 0 -1 1
848 0 2 0.5897 1.8400954024558605 0.7693636203857032 13.79782066257477 0 1 0
847 0 1 -1.1794 2.7703162040927474 0.5052429661192762 13.968328396080771 0 1 0
131 0 2 0.5897 4.8826944731716075 2.264680376920515 16.629209990935824 0 -1 1
130 0 1 -1.1794 5.822404638456807 2.2401165254885873 16.480745177187746 0 -1 1
86 0 2 0.5897 5.752440447859927 3.9486765311572216 14.040160215367717 0 0 0
526 0 1 -1.1794 11.879375375229428 0.0034087809972892335 15.466817544731446 0 -1 0
376 0 1 -1.1794 7.8035573616553595 0.992186081706425 12.731850815389631 0 0 -1
817 0 1 -1.1794 6.629749853619545 0.25361990177889254 15.05179235417083 0 1 0
641 0 2 0.5897 8.389914784798748 2.8793100322161993 12.625311505093213 0 1 -1
378 0 2 0.5897 7.368807377490086 0.7638521665152171 13.520015546186878 0 0 -1
640 0 1 -1.1794 8.463558720246947 3.801015573310683 12.800959039648662 0 1 -1
642 0 2 0.5897 9.446473462003588 3.9479987089019697 12.922773350306777 0 1 -1
660 0 2 0.5897 10.710867296612188 1.2230829077838554 15.891172365868355 0 1 -2
658 0 1 -1.1794 10.178536612313337 1.9387597183650422 16.30816091860724 0 1 -2
1311 0 2 0.5897 9.674082954322865 3.7677794415080923 15.926460921734845 0 1 1
85 0 1 -1.1794 6.383706765432094 4.188066506821388 14.78419353388842 0 0 0
2083 0 1 -1.1794 3.034288436927612 4.939307657702715 15.53324005678509 0 1 -1
2024 0 2 0.5897 5.867444536386968 7.287769451442656 12.884941121265326 0 0 0
2085 0 2 0.5897 3.13739806080186 5.6195404078939 14.831650546932007 0 1 -1
1771 0 1 -1.1794 2.6705928956280953 7.175841804494316 13.927761644849982 0 -1 0
1772 0 2 0.5897 3.2751401804748475 7.276744330241881 13.210255749863267 0 -1 0
1773 0 2 0.5897 1.7602020608631803 7.26483271622087 13.5827906316188 0 -1 0
2084 0 2 0.5897 2.315935795579502 5.168535288612135 16.14895378769722 0 1 -1