LAMMPS data file via write_data, version 23 Jun 2022, timestep = 19106000

2268 atoms
2 atom types

0.9081102406813351 46.54258875929365 xlo xhi
0 20.047001 ylo yhi
0 20.857 zlo zhi

Masses

1 1.008
2 15.999

Atoms # full

64 0 1 -1.1794 4.599604572138865 1.6849095082077226 1.22060643221924 0 -1 0
513 0 2 0.5897 3.0260088846464077 1.222144475404903 2.3160079023130598 0 0 0
511 0 1 -1.1794 2.5306087980014706 0.9184732521809614 3.1116229841267136 0 0 0
1365 0 2 0.5897 5.5581492825501755 1.1609395451153808 2.7425216562806254 0 -2 -1
65 0 2 0.5897 4.8677260491009715 2.5226478138278 0.8315033983749296 0 -1 0
66 0 2 0.5897 4.7864304221305485 1.07120390282255 0.46485253395888704 0 -1 0
512 0 2 0.5897 1.5802851483964462 0.9382143540686286 2.9494065373500438 0 0 0
1363 0 1 -1.1794 5.924039377199467 0.5740764691202787 3.4189150482818325 0 -2 -1
2063 0 2 0.5897 2.396448617591422 2.370266452478612 3.9423294588948776 0 0 1
816 0 2 0.5897 1.2456365141958656 3.3264984845345498 0.46046006224500147 0 1 1
1364 0 2 0.5897 6.856876705156268 0.6077469406654169 3.1929506065086413 0 -2 -1
1179 0 2 0.5897 9.612814649609541 0.7781952593250737 2.2049501054197687 0 0 0
1177 0 1 -1.1794 8.789821402511762 1.0949536125276982 2.66852155564963 0 0 0
1178 0 2 0.5897 8.82589258347889 2.0410973198088986 2.808850835367348 0 0 0
1398 0 2 0.5897 7.990238857559586 3.5303471950127974 0.27817514288406947 0 1 1
2159 0 2 0.5897 11.178257508573992 3.5482604118486076 0.6217487523187365 0 0 3
2066 0 2 0.5897 11.717637856854369 2.6684758433026405 2.4458071597906925 0 1 3
2067 0 2 0.5897 11.984588670321 1.3096519517375822 3.254750888717227 0 1 3
2065 0 1 -1.1794 12.029810984261662 1.6894645442005696 2.369612171181578 0 1 3
2128 0 1 -1.1794 4.165846077867671 4.419036901607074 1.0330578371504613 0 0 1
586 0 1 -1.1794 1.3381759593828835 4.7685626375125825 1.2552679035936298 0 0 0
2130 0 2 0.5897 3.2277316625277894 4.5652861237853335 1.1700692240078536 0 0 1
2129 0 2 0.5897 4.581275980759141 4.68429785202671 1.8768722630753658 0 0 1
587 0 2 0.5897 1.3105110667901894 5.538591413839768 0.6681972793811257 0 0 0
506 0 2 0.5897 2.722303426936871 6.976880998644352 3.2072126907324288 0 0 1
1331 0 2 0.5897 5.8553990461538135 6.0342354957727835 3.6474475785787144 0 0 0
6 0 2 0.5897 5.915520582883879 7.989906685816833 2.361972446616225 0 0 2
588 0 2 0.5897 0.9242933726922834 4.890227281446047 2.0988187864708445 0 0 0
1330 0 1 -1.1794 5.6961889586313985 5.136393972400742 3.3505536951321844 0 0 0
505 0 1 -1.1794 2.482606924533701 7.802155696813472 2.7167105558779236 0 0 1
507 0 2 0.5897 3.2169764957344986 7.94612466209878 2.0610751154613265 0 0 1
1617 0 2 0.5897 4.5482192324395205 7.8219392037077435 0.3855090240942449 0 -2 -1
1332 0 2 0.5897 6.021934597075118 4.521309832393678 4.006260576731252 0 0 0
4 0 1 -1.1794 6.567479407651664 7.698400178845867 3.0549303541346626 0 0 2
2158 0 1 -1.1794 11.106752742701191 4.12491732223389 1.3854375195721713 0 0 3
2026 0 1 -1.1794 12.042106231819298 6.556337116408967 2.776395946548015 0 -3 1
2160 0 2 0.5897 10.226401236895455 4.283884561327111 1.6139533182787127 0 0 3
1366 0 1 -1.1794 7.956789803758757 4.693924882487147 1.635545549293572 0 0 -1
1368 0 2 0.5897 7.9548258085916235 5.501110354697241 1.1022593339106743 0 0 -1
1367 0 2 0.5897 7.149470725342362 4.777469773357329 2.1359676305823507 0 0 -1
2193 0 2 0.5897 8.959500568561973 6.77680290407026 3.281403667664283 0 -2 0
1839 0 2 0.5897 11.373758512996487 5.472104044234601 0.16193835827062492 0 -1 0
2027 0 2 0.5897 11.210103064837828 6.742287136731678 3.216506992972836 0 -3 1
2028 0 2 0.5897 12.163142050275118 7.298699256103478 2.193707377917655 0 -3 1
2192 0 2 0.5897 9.2675372135876 5.3150255534426165 3.7116491202756667 0 -2 0
2191 0 1 -1.1794 9.414303387773364 6.239778238827454 3.9255150864384616 0 -2 0
1615 0 1 -1.1794 4.745122907542451 8.40535990665529 1.1761618028220027 0 -2 -1
1616 0 2 0.5897 4.675038739801202 9.348365179061858 0.84838501010327 0 -2 -1
13 0 1 -1.1794 4.403484039404523 11.222118103266382 1.1979116435204993 0 -1 0
2245 0 1 -1.1794 1.599223274831735 11.313956284028917 1.6921006343410097 1 0 0
15 0 2 0.5897 3.4580017865122024 11.46889057113274 1.4218281881471595 0 -1 0
14 0 2 0.5897 4.962675852665426 11.449555390460304 1.9393712948694912 0 -1 0
2247 0 2 0.5897 1.489404050631748 10.408674228387625 1.3228646808881797 1 0 0
1356 0 2 0.5897 6.026463967091098 11.24029024739101 3.995563392892465 0 -1 0
639 0 2 0.5897 2.9171302108087134 9.21915999240236 4.074032739376231 0 -1 0
1354 0 1 -1.1794 6.135657325132538 11.92924290464317 3.3437525336503886 0 -1 0
355 0 1 -1.1794 0.9413285064886643 9.273594311429845 0.3473802592144659 0 0 1
5 0 2 0.5897 7.393332287054553 8.151435248317243 2.8459183925352263 0 0 2
1372 0 1 -1.1794 9.313443361841932 8.530705684956148 2.350208128487842 0 1 0
1373 0 2 0.5897 9.600729752684192 8.709951404258106 1.4317595283917217 0 1 0
2055 0 2 0.5897 8.237957389488727 10.438606454799414 1.5103331070089594 0 0 0
1374 0 2 0.5897 9.7353765880476 9.137514483685822 2.9416462800482797 0 1 0
1355 0 2 0.5897 7.073208732707702 11.76021572441726 3.030981430342762 0 -1 0
2053 0 1 -1.1794 8.33152648204937 11.347155434877847 1.786162434670361 0 0 1
2054 0 2 0.5897 9.295487105551043 11.480944550051086 1.8912686727686396 0 0 1
102 0 2 0.5897 11.483977777704936 11.276122974846947 0.9969755438710586 0 -1 0
101 0 2 0.5897 11.956401177662155 11.296171037556755 2.4709665114011137 0 -1 0
100 0 1 -1.1794 11.191388407110137 11.340242425448618 1.9243789480603755 0 -1 0
854 0 2 0.5897 11.966104364405895 9.257547250206306 0.9493318947533659 0 -1 3
422 0 2 0.5897 7.833610992135308 8.203303228128927 0.03565245122985511 0 0 0
334 0 1 -1.1794 1.9012013300093051 14.425936679181454 2.496934038650154 0 0 1
1757 0 2 0.5897 3.418854367455252 14.638469377646796 1.2443424294643157 1 -1 1
2121 0 2 0.5897 2.3730100472051348 12.586759111665556 3.445985027571034 0 0 -1
1758 0 2 0.5897 4.869020366696626 15.002310050061306 1.7800217112210515 1 -1 1
1756 0 1 -1.1794 4.316388475040796 14.986419810036061 0.9470944722353707 1 -1 1
1268 0 2 0.5897 5.794595856282553 15.080420261528591 3.91369706146308 0 -2 1
336 0 2 0.5897 2.171067714830194 15.174705091529226 2.9981100190220933 0 0 1
807 0 2 0.5897 1.2854747322945934 12.510158022508568 0.40329928252586217 0 0 0
1267 0 1 -1.1794 5.852164333802318 14.6359568297004 3.0668024829712235 0 -2 1
1269 0 2 0.5897 5.676718259785267 13.711843421217537 3.250432079320609 0 -2 1
2097 0 2 0.5897 1.1878303810909785 14.908667544986683 0.040905444653612344 0 -1 1
335 0 2 0.5897 0.9351124833393193 14.503799652225444 2.4183496938976665 0 0 1
1386 0 2 0.5897 7.556894299976719 14.826858837038355 2.733982347367536 0 0 0
1384 0 1 -1.1794 8.48104685872944 15.212506805980917 2.5953523269136807 0 0 0
1678 0 1 -1.1794 10.987586014178138 14.355469658298354 1.3478394416963706 0 -1 2
1679 0 2 0.5897 10.058932224310086 14.66285954617766 1.4271468421358386 0 0 2
44 0 2 0.5897 9.397316640686835 13.529542467700974 3.5543614005357176 0 -3 1
1680 0 2 0.5897 11.075059695856943 13.392436336301653 1.5633818077829924 0 -1 2
1031 0 2 0.5897 8.123909265145736 12.531505009494415 0.6592321470136434 0 -1 2
1385 0 2 0.5897 8.632875374354898 15.83368960905276 3.33038875916732 0 0 0
1881 0 2 0.5897 12.064770183371262 15.320667988730245 2.781074173654202 0 0 1
882 0 2 0.5897 7.852481047787549 15.240226323926777 0.17770030725077315 0 -1 1
1030 0 1 -1.1794 8.10118241716792 13.270817282985961 0.03383620676255952 0 -1 2
2096 0 2 0.5897 0.9687674500749766 16.462361836433416 0.36690650959997023 0 -1 1
1815 0 2 0.5897 1.34653298081028 18.706207322802406 0.9150630555459992 0 -1 0
1813 0 1 -1.1794 1.4649197557505653 17.870339694664665 1.392175256826107 0 -1 0
1814 0 2 0.5897 2.4324660127031135 17.92409095305603 1.5025173913571253 0 -1 0
1601 0 2 0.5897 4.7909554523372275 17.886834685455245 2.370545293138905 0 0 0
1600 0 1 -1.1794 4.439939559164527 17.709110128040532 1.4601114075705444 0 0 0
1602 0 2 0.5897 4.366572184605417 16.735436446227588 1.3276891214181883 0 0 0
524 0 2 0.5897 5.931445715867967 18.774242731006808 3.8459649297171192 0 -1 0
62 0 2 0.5897 4.728144344403196 18.945517756775292 0.3089586126283715 0 0 0
523 0 1 -1.1794 6.06776862878272 17.856250843065503 3.5666682892698796 0 -1 0
1143 0 2 0.5897 3.0789975901531013 19.54943243168379 3.785459481174896 0 0 1
881 0 2 0.5897 7.799843420744638 16.656670050908826 0.5989799580757672 0 -1 1
2080 0 1 -1.1794 10.688523990713284 19.10660529335204 1.531996406853458 0 0 -2
2082 0 2 0.5897 11.12706833442833 19.41436462140186 0.6681651276620528 0 0 -2
2081 0 2 0.5897 9.835068975957208 18.720698568729574 1.3636661800961067 0 0 -2
2126 0 2 0.5897 7.621215579673469 18.883665375103877 1.1608420758169145 0 -1 0
2125 0 1 -1.1794 8.035269627396161 18.107850634029955 1.6347013556135261 0 -1 0
2127 0 2 0.5897 7.5399515995702355 17.900569125412297 2.461298149272958 0 -1 0
89 0 2 0.5897 11.957921097877376 18.484011592732283 2.420587059748456 0 -2 1
510 0 2 0.5897 1.2349971016883678 0.8186666969127493 6.635015581216498 0 -1 0
1878 0 2 0.5897 5.561699764196948 2.0591792409214515 4.503586875919379 0 0 1
1272 0 2 0.5897 1.492463061593888 2.8776875525619334 6.037895919595623 0 0 0
71 0 2 0.5897 4.779577003050955 0.7055631806673767 7.397632571347395 0 0 0
1877 0 2 0.5897 4.355764917401962 3.0841821615070137 4.860637784258676 0 0 1
1876 0 1 -1.1794 5.327994699181319 2.8927989363366144 4.899363758137356 0 0 1
2062 0 1 -1.1794 2.5254692508869994 2.990574009397157 4.721061116485653 0 0 1
70 0 1 -1.1794 4.751107022874683 1.4386787743381841 8.02581263590678 0 0 0
2064 0 2 0.5897 2.4361567496733687 3.9212409093056793 4.426682149944663 0 0 1
377 0 2 0.5897 6.475991659277172 3.2490106657929347 6.10841719354521 0 0 -1
1613 0 2 0.5897 4.196031273942466 3.227577211148586 7.742944989805977 0 0 -1
1271 0 2 0.5897 0.9764371481556878 3.10992040051197 7.397194672380049 0 0 0
765 0 2 0.5897 11.852304534749118 2.384892192149297 5.840855405824155 0 -2 1
1014 0 2 0.5897 9.287933567599868 0.46770532079084043 4.282514708074538 0 -1 2
133 0 1 -1.1794 9.223856731690386 3.5626195295631233 4.227495303798651 0 2 2
134 0 2 0.5897 10.118896118525548 3.415795502645135 4.672704129596316 0 2 2
591 0 2 0.5897 7.325116481573964 1.2342069714996822 6.831912912635457 0 0 0
376 0 1 -1.1794 7.2473335670990835 2.9810231764991904 6.61222632696742 0 0 -1
1645 0 1 -1.1794 10.116088640426634 1.928164195909823 8.153611727022161 0 2 0
135 0 2 0.5897 8.653730007127272 3.3279332029869577 5.003371344143749 0 2 2
1646 0 2 0.5897 9.62944823588443 1.3301365157098046 7.598078518290456 0 2 0
378 0 2 0.5897 7.501197821936234 3.6876570855804376 7.197741294145934 0 0 -1
2174 0 2 0.5897 11.11975347717038 0.15806915732991525 5.245668286058723 0 0 0
2173 0 1 -1.1794 12.063087488136988 0.482017572214768 5.087432912652665 0 1 0
589 0 1 -1.1794 7.516951133016685 0.234286930377233 6.803112333591911 0 0 0
764 0 2 0.5897 11.021577401880622 2.929650784693113 7.034358547676316 0 -2 1
763 0 1 -1.1794 11.430871622645709 3.200490101312182 6.153847468216461 0 -2 1
1033 0 1 -1.1794 1.3981867626689106 6.47611909067096 6.827699016926426 0 0 1
1034 0 2 0.5897 1.5968258791052432 7.320222643415135 7.235331394340378 0 0 1
244 0 1 -1.1794 3.0247622802741954 5.648246754250781 4.569732751338929 1 0 0
245 0 2 0.5897 3.975138210945787 5.586917932426403 4.774465053701431 1 0 0
246 0 2 0.5897 2.59327428984189 6.12312861461523 5.283712649979714 1 1 0
265 0 1 -1.1794 5.2809898008796905 6.191701065578711 6.094105871775503 0 1 1
1614 0 2 0.5897 4.561079811321016 4.729415480276073 7.344709637690142 0 0 -1
266 0 2 0.5897 6.195670298073423 6.4066297707160285 6.283594775504335 0 1 1
267 0 2 0.5897 4.86725967075424 7.093851253606123 6.30163912870017 0 1 1
1035 0 2 0.5897 1.631110715755257 5.766327219358156 7.4350260696272255 0 0 1
1612 0 1 -1.1794 4.32329902766326 4.149189991948152 8.125309076608705 0 0 -1
404 0 2 0.5897 11.932795342408506 6.445966075040062 5.901070220317407 0 1 -1
403 0 1 -1.1794 11.291007782705158 7.153133034648921 5.940917286356162 0 1 -1
641 0 2 0.5897 8.394806102112122 6.5857139657603145 5.410781178049719 0 1 -1
640 0 1 -1.1794 7.949774384326802 7.006507859148715 6.176366112403924 0 1 -1
642 0 2 0.5897 8.276313855662899 6.399058772700848 6.805485047703461 0 1 -1
405 0 2 0.5897 10.597302343633517 6.730841178622866 5.367278718380084 0 1 -1
1620 0 2 0.5897 11.390312374455098 7.726692281734556 7.60892493169809 0 -3 0
298 0 1 -1.1794 8.393938479057226 5.145865165778393 8.042562562247728 0 0 1
300 0 2 0.5897 9.282863632887901 5.096005134161997 8.327884508332344 0 0 0
2120 0 2 0.5897 3.0291792702842892 11.546134128546404 4.336300825099932 0 0 -1
1764 0 2 0.5897 5.656574963719595 8.892767822477305 4.193147649575016 1 0 0
637 0 1 -1.1794 3.0980604739239346 9.641912263915517 4.948407253616273 0 -1 0
638 0 2 0.5897 4.050129733290852 9.64861354350543 5.118482881763356 0 -1 0
104 0 2 0.5897 1.9704156229809442 9.124902867887709 6.389456995871376 0 0 0
1762 0 1 -1.1794 5.688441370961174 9.643712641178965 4.858855358381722 1 0 0
105 0 2 0.5897 1.6110799940295852 9.828177862042796 7.599384310674567 0 0 0
103 0 1 -1.1794 1.277971265240523 9.103921688404755 7.048670860788643 0 0 0
270 0 2 0.5897 4.790651335503187 11.791720952752275 7.280216187456503 0 0 0
1763 0 2 0.5897 6.444445992827769 9.52424280803804 5.398798931578108 1 0 0
2025 0 2 0.5897 4.834934609970787 9.378104244938836 7.397850484349525 0 0 0
2023 0 1 -1.1794 4.571447790108354 8.46615227373081 7.560729570555063 0 0 0
268 0 1 -1.1794 4.647272700519279 11.153573559269367 7.988276609984013 0 0 0
2024 0 2 0.5897 5.2154282141955095 8.126085551081665 8.219454591483904 0 0 0
393 0 2 0.5897 9.579788266148142 10.919808614889433 4.220562363120967 0 -2 0
391 0 1 -1.1794 9.723717752074542 10.008578186165536 4.608387334325557 0 -2 0
875 0 2 0.5897 8.005482500353809 8.645592892832928 6.865446245656666 0 -1 -1
1134 0 2 0.5897 11.80023989707646 8.977572139300497 5.404170166860654 0 1 3
392 0 2 0.5897 9.052258584492238 9.891382022454057 5.339906701201286 0 -2 0
874 0 1 -1.1794 7.869746761949492 9.583220969641921 6.508554294962298 0 -2 -1
876 0 2 0.5897 7.981974464687792 10.145793909442185 7.241374183042693 0 -2 -1
84 0 2 0.5897 11.14457398317064 11.233898658125497 5.762892820894134 0 -1 2
164 0 2 0.5897 11.090164666906924 11.616615322321321 8.20030396977081 0 0 0
1579 0 1 -1.1794 8.300302547116575 11.870771837462229 8.216030575591645 0 1 -1
2119 0 1 -1.1794 2.781747739759534 12.487728734531975 4.306279752956317 0 0 -1
1105 0 1 -1.1794 1.5149583525081103 13.320574568393127 6.4663840372304335 0 0 0
1106 0 2 0.5897 1.9399347024963451 12.993696731347635 5.655889663387622 0 0 0
51 0 2 0.5897 4.246133531050129 13.119765101808735 5.411404585782413 0 0 -1
49 0 1 -1.1794 4.866603826330524 13.074610680012857 6.132050558108479 0 0 -1
50 0 2 0.5897 5.744915408338454 13.440550184957642 5.916467284064424 0 0 -1
2184 0 2 0.5897 4.509409668056623 14.442456418950828 7.275524999805214 0 0 0
1107 0 2 0.5897 1.5112267304080071 12.593026753812806 7.0501879003323324 0 0 0
2182 0 1 -1.1794 4.455963084944883 14.960232213025646 8.068725858222962 0 0 0
2040 0 2 0.5897 1.4738071409899818 15.15606452425763 7.101303916729178 0 1 0
43 0 1 -1.1794 9.369906542826362 12.879145483559661 4.284302163874222 0 -3 1
82 0 1 -1.1794 11.081507422121962 12.100298317238448 6.190456241914075 0 -1 2
1260 0 2 0.5897 7.595056553362762 13.042055501277423 6.857160546275256 1 -1 0
45 0 2 0.5897 8.50532803277563 13.129964641398784 4.697402972311649 0 -3 1
1258 0 1 -1.1794 7.45032891786457 13.596944318044683 6.028079125994864 1 -1 0
1259 0 2 0.5897 7.458438471292205 14.526671991932487 6.30641403094296 1 -1 0
891 0 2 0.5897 10.85927591486738 14.179575297273741 6.899868091800645 0 5 1
83 0 2 0.5897 10.504671727122126 12.621581137229118 5.628706614589835 0 -1 2
889 0 1 -1.1794 10.764954912560183 14.868343632420949 7.569324382318121 0 5 1
890 0 2 0.5897 11.537645572941024 14.778641406236558 8.183009323754801 0 5 1
525 0 2 0.5897 6.040802744404185 17.255626307050374 4.348685988419843 0 -1 0
508 0 1 -1.1794 1.5189955224737002 19.964934040712873 6.417107411983474 0 -2 0
1515 0 2 0.5897 5.798593189903705 16.128102560490575 6.325500203369205 0 -1 -1
1514 0 2 0.5897 4.45645094693138 16.117984114807463 5.440584801478647 0 -1 -1
1513 0 1 -1.1794 5.400649691227133 16.106354564607184 5.422667314012355 0 -1 -1
509 0 2 0.5897 1.5416757709945128 19.445081104387107 7.260492868150145 0 -2 0
1141 0 1 -1.1794 3.012416437454652 18.917667253049146 4.490571785658552 0 0 1
1484 0 2 0.5897 2.184066749351323 16.293593479773403 5.400186701938251 1 0 0
1485 0 2 0.5897 2.985692792009508 17.117963934424893 4.393538251307399 1 0 0
1024 0 1 -1.1794 5.088085249316654 18.987087129422754 6.471956899405236 0 0 0
1026 0 2 0.5897 4.306182285954973 19.00813173778136 5.94673493510781 0 0 0
1142 0 2 0.5897 2.424983218838233 19.323621295457155 5.137310784974395 0 0 1
1483 0 1 -1.1794 2.8165396045366253 16.245366607240257 4.677897502448785 1 0 0
1025 0 2 0.5897 4.848631538459875 18.594013872997376 7.2906258208081915 0 0 0
2039 0 2 0.5897 1.3517412201108967 16.63823376652421 7.567843919164622 0 1 0
2038 0 1 -1.1794 1.1153145761848056 16.042014821232677 6.841614406594453 0 1 0
590 0 2 0.5897 6.6157173258602 19.90350142590102 6.64803105932691 0 -1 0
1576 0 1 -1.1794 7.532871722250247 16.21219924635122 7.202223636202004 0 0 -1
2105 0 2 0.5897 9.467858735024395 17.042336152814016 5.56397903859139 0 -1 -3
1578 0 2 0.5897 7.842499990218441 16.88682630424053 6.512457237804165 0 0 -1
1013 0 2 0.5897 8.777619049230978 20.006002175029774 5.621864484060519 1 -2 2
1012 0 1 -1.1794 9.501114928294106 19.86325935170218 4.967314300960831 0 -2 2
2106 0 2 0.5897 8.989031364468792 17.765789027516114 4.373449419929037 0 0 -3
2104 0 1 -1.1794 8.796013571448484 17.00726810499578 4.906497259247062 0 -1 -3
1577 0 2 0.5897 7.553772597793159 16.649040001077065 8.049397030779724 0 0 -1
123 0 2 0.5897 8.400765547258281 19.285846184307747 8.232385826214932 0 0 1
1559 0 2 0.5897 11.551282755821726 17.790292332082124 6.961939056070898 0 -1 1
1560 0 2 0.5897 10.665408551992028 16.542814274075404 7.347409566697762 0 -1 1
1558 0 1 -1.1794 10.637067502525548 17.52731763183986 7.137124506302387 0 -1 1
72 0 2 0.5897 5.477086335830408 1.2143515624837944 8.650294299760512 0 0 0
849 0 2 0.5897 3.17802785429454 1.4732812156060444 9.057747565188498 0 1 0
847 0 1 -1.1794 2.7731152470312948 1.28227186123343 9.920795431658997 0 1 0
1847 0 2 0.5897 3.1273991148491365 2.506904673666556 11.124586567190281 0 1 0
1846 0 1 -1.1794 3.356004655293997 3.2350775088518167 11.754701317044972 0 1 0
131 0 2 0.5897 5.484752831541059 3.3087152153128097 12.416588466109504 0 -1 1
130 0 1 -1.1794 6.326485072216355 3.188333659922746 12.0423376948095 0 -1 1
848 0 2 0.5897 1.8130276354060555 1.296354427715319 9.825616261944043 0 1 0
819 0 2 0.5897 6.037802661107448 1.2630998737990866 10.985991947683662 0 1 0
817 0 1 -1.1794 6.356868928147804 0.8665069068685403 10.149058833836492 0 1 0
1525 0 1 -1.1794 12.21560612178151 0.3333093811758271 9.188906269417883 0 1 0
1527 0 2 0.5897 11.309159383117201 0.416562570364567 9.019629824418905 0 1 0
1647 0 2 0.5897 9.537004755565901 1.9970695406094505 8.903299767229115 0 2 0
1052 0 2 0.5897 7.970303561386757 1.8266558473427807 10.343925085128175 0 0 0
1051 0 1 -1.1794 8.846469576910694 2.1484902017538965 10.382215852398618 0 0 0
1053 0 2 0.5897 8.727748184813695 2.940759736675344 10.924866862271829 0 0 0
1388 0 2 0.5897 9.54793763234797 0.7140863202960378 11.205357241180542 0 0 1
1069 0 1 -1.1794 1.547137321959812 4.534257644643697 8.478618221431693 0 0 0
1848 0 2 0.5897 3.1738308354491407 4.077913954803328 11.372396898070821 0 1 0
1071 0 2 0.5897 2.4393518343555294 4.4286272479469435 8.828339941536651 0 0 0
86 0 2 0.5897 6.5047195635980435 4.249080429845661 10.505370375681077 0 0 0
87 0 2 0.5897 5.781910393760314 4.470820215431358 9.136964613297067 0 0 0
2085 0 2 0.5897 2.73183599179811 6.7631606756330775 10.631173148657131 0 1 -1
2083 0 1 -1.1794 2.833124410674529 6.074863536410497 11.314187167328686 0 1 -1
2084 0 2 0.5897 2.0198020872889884 5.999082266480634 11.82148428645575 0 1 -1
85 0 1 -1.1794 6.361914602283177 4.888942654054158 9.824149210058545 0 0 0
33 0 2 0.5897 6.402042927873544 6.589271151543044 9.836929699265811 0 -1 1
31 0 1 -1.1794 6.1957431985463165 7.573535454398019 9.779384486747325 0 -1 0
1070 0 2 0.5897 0.9389049597131177 4.68051576456027 9.244711212364377 0 0 0
1412 0 2 0.5897 11.419987511854544 4.899835674555105 8.976402586605426 0 2 -1
1618 0 1 -1.1794 11.30872964778855 7.93621771222257 8.522048018633393 0 -3 0
1411 0 1 -1.1794 10.763421439789944 5.417546695786298 9.37267425111504 0 2 -1
1413 0 2 0.5897 11.023670693251752 6.351030855623243 9.369261120188337 0 2 -1
1010 0 2 0.5897 9.851740495569992 4.912560063038566 10.977319249156402 0 -1 0
299 0 2 0.5897 7.761458563934364 5.156926820948515 8.860698507005798 0 0 1
1930 0 1 -1.1794 9.344551973583073 7.53107305499921 11.778493919141615 0 -1 -1
32 0 2 0.5897 6.946947346357734 7.989480864420893 9.336332843797594 0 -1 0
1931 0 2 0.5897 8.514738823235556 7.1902540925553025 12.160926129056342 0 -1 -1
1011 0 2 0.5897 8.914810889397208 5.18166063213779 12.156462191269757 0 -1 0
1009 0 1 -1.1794 9.464367183997801 4.465930826610352 11.726469358636685 0 -1 0
1993 0 1 -1.1794 1.848081867148871 11.298810786172263 8.708927792002296 1 0 0
1994 0 2 0.5897 2.8319856220175046 11.312629043897237 8.832510447493938 1 0 0
1771 0 1 -1.1794 2.8644032096166696 8.430238040112018 9.576913434712885 0 -1 0
1773 0 2 0.5897 1.9043284649240393 8.222428666851958 9.517552060747692 0 -1 0
1772 0 2 0.5897 3.2435306183081556 8.508625412332107 8.713259134551086 0 -1 0
1041 0 2 0.5897 3.143132370302757 9.559178950893893 10.871910607438025 1 -1 -1
1039 0 1 -1.1794 3.2468741732499242 9.936433432164637 11.785214763178796 0 -1 -1
1092 0 2 0.5897 5.891081740419454 8.792245095271936 11.316305586973671 0 0 -1
1090 0 1 -1.1794 5.82874466781179 9.658753565926778 11.733568056333432 0 0 -1
1040 0 2 0.5897 4.231147316355772 9.893558572175964 11.971374717856868 0 -1 -1
1995 0 2 0.5897 1.484647814697388 11.499125794337797 9.5901558707705 1 0 0
348 0 2 0.5897 6.319504556184476 10.999768621122348 10.77369443753052 0 0 1
269 0 2 0.5897 5.288505407703634 11.25553222682303 8.690383414801195 0 0 0
1059 0 2 0.5897 2.993022163403557 11.73187780829963 11.779703266610696 0 0 -1
346 0 1 -1.1794 6.3952501125280685 11.75669536758632 10.129009994837233 0 0 2
1619 0 2 0.5897 12.070877112833989 8.467199363836519 8.83624315597878 0 -3 0
1932 0 2 0.5897 9.150855515489784 8.028502545796286 10.960445600579776 0 -1 -1
1151 0 2 0.5897 9.740127558621703 8.773018062913746 8.787645737224196 0 0 0
163 0 1 -1.1794 10.895264050799698 11.588543607495787 9.146807441684642 0 0 0
1150 0 1 -1.1794 8.959152479596018 9.040712768048534 9.320256584559196 0 0 0
1152 0 2 0.5897 9.175406777134356 9.773328446582674 9.930470975307744 0 0 0
58 0 1 -1.1794 9.200445469495591 10.89014113744761 11.671517399513979 0 1 1
1581 0 2 0.5897 7.715938554282323 11.772613296503302 8.974868498502362 0 1 -1
1580 0 2 0.5897 9.181883792972034 11.923607369670584 8.547931708100595 0 1 -1
59 0 2 0.5897 8.963603162157803 11.788059328442388 12.01249876209007 0 1 1
60 0 2 0.5897 8.575151119484502 10.310578052948703 12.07368859287899 0 1 1
674 0 2 0.5897 12.05052698280114 10.147479518755336 10.096537489169714 0 0 0
2183 0 2 0.5897 5.249632376494166 14.816543400486552 8.629434806617652 0 0 0
1058 0 2 0.5897 3.0725452438694982 13.304358610749189 11.201541669246124 0 0 -1
2110 0 1 -1.1794 2.6322557582609347 14.619468415993815 9.948949395207288 0 0 0
2112 0 2 0.5897 3.1066968816507505 14.559393667172044 9.083867115554993 0 0 0
1057 0 1 -1.1794 3.0278888623918103 12.727259954362014 11.963691037334133 0 0 -1
2111 0 2 0.5897 1.7028904638288163 14.738646715753884 9.794029957829506 0 0 0
1517 0 2 0.5897 6.151594997004952 15.088320567294208 10.946639965547133 0 0 -1
1516 0 1 -1.1794 6.3208878200207606 14.486588423523589 10.186543818818448 0 0 -1
347 0 2 0.5897 6.145771089591989 12.598419887719858 10.533850931986839 0 0 1
140 0 2 0.5897 3.1238630006607258 15.849985853712992 11.262274908343699 0 -1 0
165 0 2 0.5897 10.972431258132184 12.437130514009903 9.4401351317079 0 0 0
290 0 2 0.5897 9.144318150830955 14.97976136093204 9.014087408039712 0 -3 -1
1518 0 2 0.5897 7.280684098854131 14.664937304844358 9.879616309584264 0 0 0
1297 0 1 -1.1794 9.994817984679406 14.24010011039105 11.756082898279157 0 1 -1
291 0 2 0.5897 9.273761870529869 14.994495353191194 10.548841929631976 0 -3 -1
289 0 1 -1.1794 8.746851935992607 15.406233461458754 9.806065734915363 0 -3 -1
1298 0 2 0.5897 10.795792750196583 13.740394978113816 12.019477961294287 0 1 -1
1299 0 2 0.5897 9.422387243888306 13.905969781302169 12.478335980454036 0 1 -1
1019 0 2 0.5897 1.45203082657222 18.373881717645087 9.36738351218133 0 -1 0
1280 0 2 0.5897 4.317959363580725 16.84443838829656 8.578543156626283 1 0 -1
818 0 2 0.5897 6.419458110368785 19.976985100256545 10.151198008883469 0 0 0
330 0 2 0.5897 3.169455222657538 19.785666039346406 10.817905606329566 0 -1 1
1279 0 1 -1.1794 4.3822429805697425 17.79144468863178 8.828947646466755 0 1 -1
1018 0 1 -1.1794 1.8046516748504666 18.225996015493823 8.462064763700273 0 -1 0
1020 0 2 0.5897 2.7641400593422265 18.176551095097707 8.575669719558743 0 -1 0
325 0 1 -1.1794 6.234951025979167 16.33005547314298 12.03674591066518 0 -1 0
328 0 1 -1.1794 3.5233194731913877 19.198571386157298 11.55173744644573 0 -1 1
1281 0 2 0.5897 5.183062609387157 17.89059038141247 9.323675032563402 0 1 -1
139 0 1 -1.1794 3.340373442944958 16.50332269614794 11.963379092152284 0 -1 0
329 0 2 0.5897 3.3315384443676157 18.271646604197592 11.408540920781121 0 -1 1
326 0 2 0.5897 5.397590030213145 16.637458457373025 12.366046949674413 0 -1 0
122 0 2 0.5897 9.739875865430331 18.41830581498673 8.405979974278557 0 0 1
121 0 1 -1.1794 9.031993221950476 18.894449631546674 8.902407823609161 0 0 1
1823 0 2 0.5897 6.674371252299956 17.58000724683475 10.880239450294 0 -2 1
1822 0 1 -1.1794 6.689076868440085 18.22992980785597 10.104691051492143 0 -2 1
1387 0 1 -1.1794 9.85902762191313 20.00867136923376 11.72405845751694 0 -1 1
1802 0 2 0.5897 9.725333986506655 16.9233425541085 10.539291703735511 0 -1 -2
681 0 2 0.5897 11.469748656535614 17.225886631131768 12.041707196049229 0 -1 0
1803 0 2 0.5897 9.86349510356657 18.443221589660826 11.28380498051106 0 -1 -2
1801 0 1 -1.1794 10.003448819366477 17.48138063903927 11.318142594348718 0 -1 -2
1824 0 2 0.5897 7.63159165925802 18.38085054834047 9.882262983565376 0 -2 1
81 0 2 0.5897 11.888579093601669 19.705936328766942 12.407780982501919 0 1 -2
1864 0 1 -1.1794 1.4352801723937576 2.65335202686114 13.619661968655691 0 1 -1
1113 0 2 0.5897 1.4574883102960312 0.8007746726753695 13.5289565021055 0 0 -1
1866 0 2 0.5897 2.100803593920529 2.9530543972815075 12.967770925735861 0 1 -1
551 0 2 0.5897 4.888801278396302 1.2963990455064949 14.194972301265707 0 0 -1
550 0 1 -1.1794 4.750740295401345 1.8394526315704933 14.995533298623483 0 -1 -1
552 0 2 0.5897 5.405991715468125 1.6026047443247124 15.668799163683653 0 -1 -1
1095 0 2 0.5897 3.1613224077853226 1.1631659730934016 15.907335187251876 0 0 0
560 0 2 0.5897 4.269131187280708 3.6070791307987697 15.187641916152465 0 0 -1
1865 0 2 0.5897 1.5156653922708694 3.2904288373978416 14.377737009190799 0 1 -1
1094 0 2 0.5897 1.7064689715848984 0.8751426632680862 16.466608137462508 0 0 0
596 0 2 0.5897 11.593997112400967 3.0645270342503386 12.635291844094375 0 2 1
132 0 2 0.5897 6.898299042861077 3.0073182700481915 12.816041235104784 0 -1 1
597 0 2 0.5897 10.275592972070992 3.714749640197689 13.195025289424132 0 2 2
595 0 1 -1.1794 11.178066564752301 3.4627887859677555 13.432916939369838 0 2 2
636 0 2 0.5897 11.588735355915244 2.614968412939534 15.142904744145106 0 -1 -1
635 0 2 0.5897 10.626362535563752 2.0101624856968416 16.181688190891478 0 -1 0
554 0 2 0.5897 8.041503337064098 1.7367423417763121 14.27467374950504 0 1 2
553 0 1 -1.1794 8.175271468825848 2.6152888276332718 13.919638617280205 0 1 2
634 0 1 -1.1794 11.577438162142785 2.079593316318757 15.971576840338601 0 -1 -1
555 0 2 0.5897 8.049732635942323 3.2474171188838734 14.643425177910865 0 1 2
1626 0 2 0.5897 3.9421497031825288 6.194767096085333 12.563240581616379 0 1 0
1625 0 2 0.5897 4.416285037882767 5.3811483463030925 13.877526920369283 0 1 0
1624 0 1 -1.1794 4.588384792827813 6.1673149142356225 13.2994605499767 0 1 0
559 0 1 -1.1794 4.169286419910174 4.463118237931948 15.560966195183335 0 0 -1
1345 0 1 -1.1794 1.4973141595056791 4.794299234341372 15.26291892237159 0 0 -1
1346 0 2 0.5897 2.320991882312245 5.116427055305632 15.726878774235232 0 0 -1
561 0 2 0.5897 4.971472930573402 4.567919452304883 16.09806165941015 0 0 -1
1407 0 2 0.5897 5.698054492456656 7.780776214678668 16.34361123798583 0 1 -1
1769 0 2 0.5897 4.648480811941582 7.551309394761426 14.225163496253357 0 1 -1
55 0 1 -1.1794 0.9904857594658679 6.4999376909393 13.08298859020476 0 0 0
56 0 2 0.5897 1.2272954137896939 5.800793899765129 13.743535934101272 0 0 0
2144 0 2 0.5897 6.482115017026673 6.271685930716282 13.239005000446372 0 0 1
840 0 2 0.5897 1.6602941238965676 8.01868841101544 13.817794198177948 0 0 -1
956 0 2 0.5897 11.378886679191409 5.034893815374026 14.528736146612898 0 -1 -1
957 0 2 0.5897 11.827429295573213 5.567316545226832 15.94637872349516 0 -1 -1
1780 0 1 -1.1794 8.624878101509703 5.030893657524091 15.301780516854897 0 0 -1
1782 0 2 0.5897 7.932870130764906 5.139343478511792 15.999648318195963 0 0 -1
2143 0 1 -1.1794 7.452570112386873 6.494528353233174 13.422242253438256 0 0 1
2145 0 2 0.5897 7.78593680915821 6.049495782470267 14.233096834677873 0 0 1
1781 0 2 0.5897 9.466655416189113 5.184874497694522 15.77268531916691 0 0 -1
955 0 1 -1.1794 11.258954881554128 5.761820522937671 15.174966199456962 0 -1 -1
1671 0 2 0.5897 10.663552681678398 7.321796966067201 14.758783803618122 0 -2 1