LAMMPS data file via write_data, version 23 Jun 2022, timestep = 0

2268 atoms
2 atom types

1.08345667674255 46.36724232324533 xlo xhi
0 20.047001 ylo yhi
0 20.857 zlo zhi

Masses

1 1.008
2 15.999

Atoms # full

856 0 1 -1.1794 3.221946588143012 2.5697287296345688 0.38274757108673135 0 1 0
29 0 2 0.5897 2.3184425401455346 2.577890227279664 2.035572844340953 0 0 1
512 0 2 0.5897 4.897190382989706 2.885496639095409 1.208866485033809 0 0 0
513 0 2 0.5897 6.364590786232819 2.8612102117673066 1.7391955408993451 0 0 0
511 0 1 -1.1794 5.404025499974885 2.992474442677939 1.9917423431922165 0 0 0
1318 0 1 -1.1794 5.00364688145984 0.5059687503467132 3.394233413585297 0 -1 0
857 0 2 0.5897 3.0553225080543407 1.628214495164859 0.20964989009853988 0 1 0
30 0 2 0.5897 1.6379256099866821 3.75180424379487 2.7870033358399664 0 0 1
1320 0 2 0.5897 5.915005066621288 0.3671908551181 3.7810092242043543 0 0 0
28 0 1 -1.1794 1.6764911815128343 2.7936109756578835 2.7468875478734267 0 0 1
1319 0 2 0.5897 5.209687539647437 0.9338932469599975 2.562492270684232 0 -1 0
1081 0 1 -1.1794 9.35105571107741 0.5128030812941948 1.7391930287239186 0 0 1
1083 0 2 0.5897 10.117161089113155 0.9444806204555258 2.142189219196822 0 0 1
1877 0 2 0.5897 8.698336085687268 1.9663908202451108 0.7493073651812842 0 0 1
1876 0 1 -1.1794 8.163637956435391 2.7249273636480114 0.44429717982158135 0 0 1
1878 0 2 0.5897 8.610708414401937 3.460848494277158 0.8009258735915717 0 0 1
525 0 2 0.5897 8.190107644410807 0.5686915133323179 3.3055936517516544 0 0 0
1741 0 1 -1.1794 8.035543895841435 3.4431420020856556 3.651568552355712 1 0 0
604 0 1 -1.1794 11.510554067191656 3.00503836419235 1.531854500847619 0 0 1
1097 0 2 0.5897 10.936726015773138 2.613473860695255 3.3929504021730104 0 0 -1
1742 0 2 0.5897 8.757805085075558 2.9476444623729425 3.9985522618691065 1 0 0
523 0 1 -1.1794 7.622217411467236 0.18129442564357678 4.015996477898601 0 0 0
1743 0 2 0.5897 7.210473268020951 3.2431068271013856 4.098705637060963 1 0 0
606 0 2 0.5897 11.328622298935695 3.6508165294444552 0.8316830946356286 0 0 1
605 0 2 0.5897 12.351075993326912 2.5711666156253044 1.25275343084472 0 0 1
38 0 2 0.5897 5.314081048085306 4.625696487448104 2.7702517391283656 0 1 0
37 0 1 -1.1794 5.129890683456395 5.561095409051423 2.55003039787813 0 1 0
1529 0 2 0.5897 2.6256312151299834 5.774749580867609 1.6110904710305771 0 0 0
1528 0 1 -1.1794 3.076348818326382 6.10360265288748 0.8332524727449513 0 0 0
39 0 2 0.5897 4.729759468264118 5.524052167027854 1.6647077118337958 0 1 0
1626 0 2 0.5897 6.033708878841274 7.1963772451665475 1.9998156305196901 0 1 1
1530 0 2 0.5897 2.7800631382442296 5.481797034731262 0.1336118612152033 0 0 0
814 0 1 -1.1794 1.4850969497907944 5.693126176076539 3.196023471740921 0 1 1
1624 0 1 -1.1794 6.742616867598382 7.831460603986331 1.7101514844707968 0 1 1
1100 0 2 0.5897 3.0607916110309072 7.790927507074357 0.9114334673289151 0 -1 1
2129 0 2 0.5897 4.544914634564927 6.724450550439183 4.062067211673629 0 0 1
816 0 2 0.5897 1.7465794503624577 6.279210195028339 3.9798997544127186 0 1 1
64 0 1 -1.1794 8.552565017016748 5.306961793231015 1.7541301321392408 0 -1 0
66 0 2 0.5897 8.014092369102883 5.687802550738064 1.0473943336947014 0 -1 0
65 0 2 0.5897 8.077505539672163 4.735359389600955 2.3138273056048195 0 -1 0
1541 0 2 0.5897 9.240633194416828 6.393054530219023 3.1495797983650653 0 0 0
1540 0 1 -1.1794 9.967203160605965 6.555672386442804 3.751664961712008 0 0 0
1542 0 2 0.5897 9.818815371248617 7.482720387018312 4.055389426430229 0 0 0
1577 0 2 0.5897 11.651574711821409 5.666952319379831 3.284482477874365 0 -1 0
1360 0 1 -1.1794 10.35846630854804 7.374687522832951 0.4133378379988159 0 -1 1
1578 0 2 0.5897 12.127227975757519 4.353237597156116 2.5628763123539993 0 -1 0
850 0 1 -1.1794 5.160287472754783 10.786512467158198 1.3609589664006805 0 -1 1
852 0 2 0.5897 4.790943330910333 9.887507753512812 1.3370964904392286 0 0 1
1099 0 1 -1.1794 2.99635708798907 8.777507489432605 1.2093753746998033 0 -1 1
851 0 2 0.5897 5.073912735862504 11.224717122333592 0.5378075623816659 0 -1 1
1349 0 2 0.5897 1.7200513299136853 9.058619472150756 2.348661918590699 0 0 0
108 0 2 0.5897 4.9856499766033835 11.461948397766543 3.0686954097943815 0 0 0
356 0 2 0.5897 1.290939413055194 11.059034663230687 3.047892056555587 0 0 1
106 0 1 -1.1794 4.710050151042699 11.40241023713403 3.9705279662571233 0 0 0
1101 0 2 0.5897 2.81209321529084 9.238406008876511 0.40395981521356183 0 -1 1
888 0 2 0.5897 11.830082727142702 10.081063918414012 4.011670574278338 0 0 0
1625 0 2 0.5897 6.9013981240679945 8.395840121219068 2.5488939890397115 0 1 1
1253 0 2 0.5897 6.768779606948193 10.966413751638603 1.7924339127104152 1 0 1
561 0 2 0.5897 9.108858857048997 9.634903093320636 1.8013528576574138 0 0 0
559 0 1 -1.1794 9.901409765927491 9.316364360700199 2.222570105776515 0 0 0
560 0 2 0.5897 10.20871376622944 8.514909248787086 1.7786350223172267 0 0 0
1254 0 2 0.5897 7.860675746851781 11.76856482001765 1.3373992764106453 1 0 1
2045 0 2 0.5897 10.531668454897009 10.736718956576318 1.017977030354452 0 -1 0
1252 0 1 -1.1794 7.698045416484383 11.00504028346397 1.894820983981443 1 0 1
2044 0 1 -1.1794 10.674227543818299 11.279432269717141 0.23460856339299443 0 -1 0
887 0 2 0.5897 10.462633481267025 9.543599789989143 4.08137659942552 0 0 0
23 0 2 0.5897 8.092060099066451 11.582870575190022 3.6719688587262387 0 1 0
807 0 2 0.5897 2.371103372931976 12.478341092131284 1.5903671690024 0 0 0
618 0 2 0.5897 4.381742024674322 13.61988092940996 0.8683680612148837 0 1 0
805 0 1 -1.1794 2.667644912889886 13.020773640661025 0.8104631227545808 0 0 0
616 0 1 -1.1794 5.094257637182521 14.26200657266532 0.9737110473129778 0 1 0
617 0 2 0.5897 5.050239769066948 14.536843334199842 1.8962985192917572 0 1 0
806 0 2 0.5897 2.6882001034785334 12.380645969809262 0.09656180720084379 0 0 0
1767 0 2 0.5897 2.462956744847996 14.866094613138634 0.40497998222513815 0 -1 0
1369 0 1 -1.1794 5.261886120398861 15.637610538837404 3.4277415525139188 0 0 -1
1765 0 1 -1.1794 2.4000572069798816 15.828728929824992 0.4399473192604317 0 -1 0
355 0 1 -1.1794 1.2787736224563717 12.051867381038688 3.0041143236193277 0 0 1
1371 0 2 0.5897 6.21695764447837 15.295812438853522 3.4129558726635736 0 0 -1
1766 0 2 0.5897 2.162120959460103 15.949520356700354 1.3619740291560536 0 -1 0
224 0 2 0.5897 1.6484212092680184 15.931066524944004 3.676344311377174 1 0 0
1793 0 2 0.5897 1.3852761644279057 13.458890548003364 4.131931726121195 0 -1 1
35 0 2 0.5897 7.997687883350756 15.040621033930478 1.149138995982376 0 -1 1
2078 0 2 0.5897 10.2927569572095 14.625787387141244 1.9231198186913117 0 0 0
2079 0 2 0.5897 10.63569485847437 14.249162419733334 3.3799953939334095 0 0 0
2077 0 1 -1.1794 10.227716841994397 14.951779434350888 2.811848973899511 0 0 0
284 0 2 0.5897 9.46224502153289 14.008608789976082 0.14674747014477282 0 0 0
283 0 1 -1.1794 10.377478300889566 14.238429649222834 5.8331388729016e-05 0 0 0
2069 0 2 0.5897 8.583567000397645 14.801552995748963 3.533607385972762 0 0 1
347 0 2 0.5897 12.013757207456335 12.502751963734287 3.4773948838262743 0 0 1
34 0 1 -1.1794 7.83984297255022 14.254052964766046 0.6148200046065264 0 -1 1
36 0 2 0.5897 6.880782987409356 14.127068932663242 0.6194004430412469 0 -1 1
2068 0 1 -1.1794 7.696399151344197 14.577409487892089 3.8079527955218926 0 0 1
2070 0 2 0.5897 7.7303276278847886 13.624861394710532 3.8525797186246344 0 0 1
2097 0 2 0.5897 2.4877601595855703 19.461936198272383 3.7451307984744733 0 -1 1
372 0 2 0.5897 4.615699096717913 16.632228672511033 1.4653438179391098 0 0 2
223 0 1 -1.1794 1.4466913164219561 16.457671207252112 2.881891947192112 1 0 0
370 0 1 -1.1794 4.910598032602061 17.33305014998356 0.9059444772356433 0 0 2
2266 0 1 -1.1794 3.2589662099321512 19.883410021069118 0.685969731574959 1 0 0
2267 0 2 0.5897 3.92424082667644 19.236382956820776 0.9546216262337276 1 0 0
1063 0 1 -1.1794 6.335277314659187 19.7393367972734 1.0236314748867723 0 0 0
2096 0 2 0.5897 2.4180247817787635 19.52233961314225 2.2075473864929083 0 -1 1
1065 0 2 0.5897 6.109696236604726 18.799572010476936 1.0853047691164495 0 0 0
1370 0 2 0.5897 5.1902988142022215 16.57484100489956 3.829716810852501 0 0 -1
2095 0 1 -1.1794 1.963527726526149 19.212525033102736 3.021128749203329 0 -1 1
225 0 2 0.5897 1.6539716701257083 17.41914784276022 3.041207542541393 1 0 0
1386 0 2 0.5897 6.687820741489615 16.76517488073858 1.3471232999257752 0 0 0
1841 0 2 0.5897 5.081810171187636 18.810983603119958 3.903921406345628 0 -2 1
1363 0 1 -1.1794 12.325853036358188 19.76496396672059 1.6780122084602966 0 -2 0
1082 0 2 0.5897 9.649027696313414 19.728919646597188 1.3008757963429969 0 -1 1
1384 0 1 -1.1794 7.559410822904567 16.769180304878237 1.801641162920058 0 0 0
1064 0 2 0.5897 7.287739930388363 19.773970299011165 1.2398053814179668 0 0 0
1385 0 2 0.5897 8.174024993784535 17.185139523660865 1.1451482420678891 0 0 0
274 0 1 -1.1794 9.210503761594309 18.457408762413234 0.3355286416730838 0 -1 1
275 0 2 0.5897 10.009074634865256 17.936712418684717 0.12142789345389018 0 -1 1
1365 0 2 0.5897 12.339616104590784 19.004022503806258 2.2443461764536994 0 -2 0
1806 0 2 0.5897 10.25703861526119 17.23302959351492 3.427227010164721 0 -1 1
1580 0 2 0.5897 7.909357607700999 17.358334122283146 3.258874991427074 0 0 0
1267 0 1 -1.1794 11.45853322104792 17.22567638938374 0.12710082732190586 0 -1 1
1579 0 1 -1.1794 8.3786293431984 17.604199873010394 4.060633995193196 0 0 0
524 0 2 0.5897 7.78402237664458 19.265565592078342 4.136413105467425 0 -1 0
1804 0 1 -1.1794 11.08492229704313 17.720547062585943 3.5013145394754415 0 -1 1
1805 0 2 0.5897 11.720205553965618 17.086076687176973 3.8772317275363233 0 -1 1
1815 0 2 0.5897 2.5785372477551016 1.9739387725973891 4.332507757390045 0 0 0
1515 0 2 0.5897 4.976759678165698 2.9325889245307675 4.97529964019177 0 0 -1
1814 0 2 0.5897 3.7018956050643643 1.0380503227094338 4.658629892029334 0 0 0
1813 0 1 -1.1794 2.9338759424145118 1.4743819737902382 5.059125003281918 0 0 0
1053 0 2 0.5897 3.4212119349433023 3.112613123494101 7.0903286501364 0 0 1
1485 0 2 0.5897 3.078487878215627 1.0478150547826575 8.217098176869246 1 1 0
1051 0 1 -1.1794 3.4167440978646586 2.6660632192930955 7.9423624676507645 0 0 1
1052 0 2 0.5897 4.311869494664293 2.751710609087481 8.336164057729821 0 0 1
1513 0 1 -1.1794 5.725087476366748 3.201066936941901 5.465863015431488 0 0 -1
819 0 2 0.5897 6.62019722981997 1.7605676158491466 6.569081044498194 0 1 0
1483 0 1 -1.1794 3.167880859696204 0.08492693536754463 8.310321512904764 1 1 0
1548 0 2 0.5897 1.4381567500928005 0.8119539606058761 6.139288969026472 0 1 -1
1098 0 2 0.5897 11.253838774346473 2.4411274711390036 4.878168799036439 0 0 -1
1096 0 1 -1.1794 10.583367930619843 2.2197515709521305 4.205272914811936 0 0 -1
817 0 1 -1.1794 7.399282628258224 1.3265662541415508 6.802279370327802 0 1 0
818 0 2 0.5897 7.593369645516604 0.6225822457367914 6.1558174431664305 0 1 0
1887 0 2 0.5897 8.548946385870511 2.4303053442153386 7.254189136679252 0 0 0
1886 0 2 0.5897 9.5149932932658 3.513003204149279 6.874284847458622 0 0 0
1885 0 1 -1.1794 9.123731178573076 3.0656431949015386 7.6625283032474725 0 0 0
1334 0 2 0.5897 10.14777634589001 0.561142623703926 4.884410495079965 0 0 1
1514 0 2 0.5897 5.439197772505598 4.043894617843829 5.938123986961207 0 0 -1
1141 0 1 -1.1794 3.2081983906488345 4.464165005417875 5.6986566779072065 0 1 1
2128 0 1 -1.1794 4.759732555437297 7.10239793930375 4.947874486356924 0 0 1
2130 0 2 0.5897 3.9692450452064882 7.564213222251692 5.26315855541394 0 0 1
1143 0 2 0.5897 2.2642342745920128 4.265895089804801 5.629496933792548 0 1 1
1142 0 2 0.5897 3.3940419914903694 5.348505569251164 5.375974810049254 0 1 1
2064 0 2 0.5897 3.2597529001993193 5.474809618561464 7.3549908012396035 0 0 1
2062 0 1 -1.1794 2.952207061165973 6.290070778187085 7.810026238064966 0 0 1
586 0 1 -1.1794 2.1095734464741014 7.617810043345539 4.918189077550788 0 0 0
2063 0 2 0.5897 3.7485401415318202 6.527564550660392 8.339818940067284 0 0 1
1587 0 2 0.5897 5.452062819070857 6.005536889269865 6.282238660538735 0 -1 1
1585 0 1 -1.1794 5.669389017283273 5.369919187513113 6.9928542602123525 0 -1 1
1586 0 2 0.5897 6.640108247758797 5.393777223318217 7.074186300558494 0 -1 1
588 0 2 0.5897 1.5461943952789579 7.51482423178894 5.705471317700833 0 0 0
1055 0 2 0.5897 6.470834213413543 8.002256586868887 7.318710639150487 0 1 1
2091 0 2 0.5897 8.56246678544376 7.147918141937581 6.243389147890135 0 0 0
1647 0 2 0.5897 10.244044858907044 5.138596294082726 5.152258553650972 0 2 0
2089 0 1 -1.1794 8.105204281141962 6.729953993049356 6.9999925213409675 0 0 0
2090 0 2 0.5897 8.774592683551646 6.829438242309248 7.674130916637962 0 0 0
1645 0 1 -1.1794 10.633373666547158 4.920084335023925 6.058039159895767 0 2 0
1646 0 2 0.5897 10.10871746782213 5.51573045703178 6.566691113220883 0 2 0
279 0 2 0.5897 12.237522840696123 6.017955478679653 8.034714362977915 0 1 0
502 0 1 -1.1794 6.255953271154527 9.216094948299693 4.274029959462825 1 0 0
245 0 2 0.5897 2.729527495558168 8.085715055716959 7.455788005350504 1 0 0
587 0 2 0.5897 1.503140814712264 8.256603018649315 4.491852118873767 0 0 0
503 0 2 0.5897 5.677571671766893 9.969699778876807 4.3018945368680255 1 0 0
1054 0 1 -1.1794 6.1034253664994935 8.851653476561472 7.499419511313671 0 1 1
1056 0 2 0.5897 5.185897347642082 8.774238708631179 7.842202944994222 0 1 1
504 0 2 0.5897 5.738834117495432 8.418408331927159 4.497680938735348 1 0 0
507 0 2 0.5897 3.24651193331791 10.99234094604005 5.283429840677224 0 0 1
506 0 2 0.5897 3.05122607583229 10.165236355156638 6.453192782196976 0 0 1
505 0 1 -1.1794 2.6080080222729727 10.89449397691532 5.9853797311613555 0 0 1
244 0 1 -1.1794 3.1355890063958514 8.947591203674511 7.7038194113752825 1 0 0
1763 0 2 0.5897 5.832869766657433 11.808843692045306 8.247419333568274 1 0 0
886 0 1 -1.1794 11.24641948120612 9.740002970122866 4.639770668330312 0 0 0
1608 0 2 0.5897 6.816223328472744 10.397200962453592 7.0529493071546385 0 1 0
22 0 1 -1.1794 8.354130470808286 11.994834084501418 4.508294227074799 0 1 0
1606 0 1 -1.1794 7.134675736030619 11.304846167975224 6.788323102087535 0 1 0
1351 0 1 -1.1794 8.699428704898779 8.746678994733553 5.002845438064495 0 -1 0
1352 0 2 0.5897 7.773308306860475 8.963853306226188 4.958831966959489 0 -1 0
19 0 1 -1.1794 9.935356618669955 8.945519800191779 7.532868600386719 0 -1 -1
1353 0 2 0.5897 9.030385624274828 9.047143503078676 5.868706895160694 0 -1 0
1607 0 2 0.5897 7.522439634304412 11.362493863143927 5.911388368398334 0 1 0
20 0 2 0.5897 10.850916292550687 9.269865249069593 7.204170963635331 0 -1 -1
21 0 2 0.5897 9.655517694481144 9.622266688326109 8.191026616977156 1 -1 -1
24 0 2 0.5897 9.28009241989792 11.7653988266758 4.498484423650332 0 1 0
1604 0 2 0.5897 11.994769375906769 11.660863385504772 6.836315183546969 0 0 0
845 0 2 0.5897 8.565685822626428 11.232986376654031 8.043232701611961 0 0 0
1794 0 2 0.5897 1.2736729261469568 14.276956338638769 5.528507752281721 0 -1 1
2247 0 2 0.5897 2.6575342828767576 12.480533045493484 7.158833830485418 1 0 0
107 0 2 0.5897 4.877316317542391 12.267604752113991 4.390642751121899 0 0 0
2245 0 1 -1.1794 2.746499349505944 13.026755695054813 8.006575832555734 1 0 0
15 0 2 0.5897 4.711323195116168 14.594409055117694 4.3551111865261065 0 -1 0
13 0 1 -1.1794 4.523725504662115 13.83389041058805 5.016217885764773 0 -1 0
14 0 2 0.5897 3.560922193840041 13.967098248854285 5.151986542429731 0 -1 0
1792 0 1 -1.1794 1.7688754297975797 14.190877914343844 4.6606005063110985 0 -1 1
2246 0 2 0.5897 2.7530875574784535 13.932396556201773 7.816883176212271 1 -1 0
1638 0 2 0.5897 6.046839127312991 14.03512484784368 6.3512402884318 0 -1 0
334 0 1 -1.1794 3.228452830781523 15.767727159014678 7.8339173201796655 0 0 1
1637 0 2 0.5897 6.383931376899201 14.252675589128524 7.791251013279937 0 -1 0
348 0 2 0.5897 12.208039772474972 13.077678235748795 4.820044355606837 0 0 1
346 0 1 -1.1794 11.496127610510984 12.842073695475426 4.2347651057780356 0 0 2
1636 0 1 -1.1794 6.778766460174374 14.279681972931668 6.934839057906511 0 -1 0
327 0 2 0.5897 9.841858063999162 13.713728006503109 5.404620023875917 0 -1 1
325 0 1 -1.1794 9.588923426176494 14.138340460843406 6.2159924340204125 0 -1 1
326 0 2 0.5897 8.63864549013266 13.993819323841981 6.058674843924629 0 -1 1
380 0 2 0.5897 10.985130588974826 15.192012754686608 7.045118885383404 0 -1 1
379 0 1 -1.1794 11.80249657245164 15.607904485422141 7.337841278660893 0 -1 1
1241 0 2 0.5897 8.739709361123328 15.143988285742209 7.79412758472066 1 0 0
1603 0 1 -1.1794 12.20907109901742 12.5723528694302 7.090977129440568 0 0 0
1605 0 2 0.5897 11.643409393152925 12.790872871818044 7.885117628328912 0 0 0
1840 0 1 -1.1794 4.981691516290435 18.05302028348126 4.524694499944506 0 -2 1
1842 0 2 0.5897 4.164690839377709 18.072182437760063 5.003003518552637 0 -2 1
2088 0 2 0.5897 6.362329022614994 19.88569316236504 8.034311101027468 0 -1 1
336 0 2 0.5897 3.1315909812107354 16.540971963075084 7.236891786239339 0 0 1
1757 0 2 0.5897 2.874594039582149 18.843853886800595 7.039800929200348 1 -1 1
1756 0 1 -1.1794 2.815006654300758 18.246672471359002 6.2703836430746955 1 -1 1
291 0 2 0.5897 6.289297204539546 17.51105122348734 6.527689980101061 0 -2 -1
1758 0 2 0.5897 1.880068853144543 17.947031107103452 6.240121109944766 1 -1 1
1333 0 1 -1.1794 10.278537552224874 19.765673974072925 5.302160209038144 0 -1 1
290 0 2 0.5897 7.041886136814253 16.14400369310052 6.739916284613523 0 -2 -1
1335 0 2 0.5897 10.084932668859 19.07730498427799 4.635055814485067 0 -1 1
289 0 1 -1.1794 7.163397995218096 17.116102189418825 6.548850811620395 0 -2 -1
1581 0 2 0.5897 7.990912509646968 17.061410218937148 4.756459722726761 0 0 0
578 0 2 0.5897 8.328572339920974 18.16103518677012 7.6346807722798955 0 -1 -1
579 0 2 0.5897 9.660933401634331 18.87439677634967 7.325380386676188 0 -1 -1
577 0 1 -1.1794 9.048668353431808 18.745258151233774 8.022320154126618 0 -1 -1
1896 0 2 0.5897 11.733255068375254 19.44147132909868 6.148690346394516 0 0 -1
381 0 2 0.5897 11.549713598936968 16.233309322536748 8.036371326296159 0 -1 1
1895 0 2 0.5897 12.23106095796536 18.586967429475273 7.258644701607601 0 0 -1
1595 0 2 0.5897 6.6715766226557625 3.2913688823181504 9.390801867477741 0 1 -1
1594 0 1 -1.1794 6.051746941419176 2.526932030505293 9.25487149932118 0 1 -1
509 0 2 0.5897 2.0696587200675207 2.913618273313467 8.837377700407309 0 -1 0
1281 0 2 0.5897 3.8741975972116385 0.8202784615828175 11.645535524163519 0 2 -1
1020 0 2 0.5897 1.791243871030693 1.9413236377114778 11.162272065206361 0 0 0
1279 0 1 -1.1794 4.583340989559237 0.24612097049945164 11.92166493408569 0 2 -1
1018 0 1 -1.1794 2.0253454481726667 1.3509589741137014 11.871427951289084 0 0 0
377 0 2 0.5897 5.003939552825874 3.054547724894024 10.568933957427356 0 0 -1
132 0 2 0.5897 6.39005232683301 0.8350232023414067 12.01982685655129 0 0 0
1596 0 2 0.5897 6.628645113521622 1.7547986994788272 9.311178818205867 0 1 -1
376 0 1 -1.1794 4.561563624427204 3.6948786722885507 11.164200224375668 0 0 -1
510 0 2 0.5897 1.4771163588928042 3.975067971052858 9.831431599787257 0 -1 0
508 0 1 -1.1794 1.4899311889511675 3.018013362574058 9.589917308192366 0 -1 0
73 0 1 -1.1794 10.569846701608492 3.766593974911859 9.785299211544375 0 0 0
74 0 2 0.5897 10.504936806424086 3.1754751244025563 8.987038134422226 0 0 0
1617 0 2 0.5897 8.42479889563193 0.9563433441192648 8.924916867161722 0 -1 -1
1615 0 1 -1.1794 8.121184206573306 0.5639380145629947 9.739859547584308 0 -1 -1
2072 0 2 0.5897 9.753884356023502 2.753657992570622 11.473280067609984 0 0 0
786 0 2 0.5897 10.109182930009599 0.41240159650749025 10.209777499773624 0 0 -1
784 0 1 -1.1794 11.001444636554918 0.36519027852806035 10.572993223509028 0 0 -1
785 0 2 0.5897 11.479319658305219 1.0182671534588155 10.061439075596075 0 0 -1
75 0 2 0.5897 11.533084650410173 3.8060899187048625 9.97446894220236 0 0 0
2071 0 1 -1.1794 9.291811545500257 2.6835924588027322 12.295295240338183 0 -1 0
1016 0 2 0.5897 11.33102707891178 0.4678310682263903 12.317173821455553 0 0 0
131 0 2 0.5897 7.851194746431055 1.471935026266614 12.129396305763883 0 0 0
1272 0 2 0.5897 1.6086401344351726 6.102455612138324 10.677903604608284 0 0 0
378 0 2 0.5897 4.477162100717955 4.507682148966981 10.708992571011988 0 0 -1
1271 0 2 0.5897 1.882318110903445 5.838573928594006 9.13929865755845 0 0 0
72 0 2 0.5897 4.691701686194158 6.900475732560483 10.512066654513273 0 0 0
70 0 1 -1.1794 4.97590670889257 6.084605936840755 10.03953431178476 0 0 0
71 0 2 0.5897 5.892472187803598 6.029369736515643 10.076448808987067 0 0 0
849 0 2 0.5897 2.975152456461095 4.195484353066775 12.374436689973601 0 1 0
891 0 2 0.5897 6.008450231628032 4.370506725473488 12.177205149160551 0 2 0
1069 0 1 -1.1794 1.9473018352250655 7.509984091801177 11.741127875394673 0 0 0
1071 0 2 0.5897 2.8755906349941585 7.76071639444836 11.988914348307826 0 0 0
1270 0 1 -1.1794 1.3993076161940228 5.5544207690209655 9.93987239743606 0 0 0
1070 0 2 0.5897 1.3665909461941381 7.5462422061164665 12.504907181547255 0 0 0
359 0 2 0.5897 10.427016226712043 7.441320103840669 8.468001134711812 0 -1 0
358 0 1 -1.1794 10.635392468976328 6.515507500657294 8.506603438816601 0 -1 0
564 0 2 0.5897 8.340877557911353 4.245673790707329 8.831131206100933 0 0 0
562 0 1 -1.1794 7.783000423201062 4.764921325087298 9.456253006223312 0 0 0
360 0 2 0.5897 10.680071482840301 6.25175176907955 9.45940880214789 0 -1 0
294 0 2 0.5897 10.5681064202132 5.265900598606971 11.072402183612164 0 1 -1
292 0 1 -1.1794 10.752242404004386 6.194376129662374 11.235931334456817 0 1 0
563 0 2 0.5897 8.084331758187481 5.665847485001239 9.415582097899795 0 0 0
890 0 2 0.5897 7.418978053066761 4.8453117401882055 11.49929221102612 0 2 0
293 0 2 0.5897 11.662571950756874 6.278548597224323 11.534267621171898 0 1 0
1001 0 2 0.5897 9.281888080882158 7.245035588635214 11.892503061525922 1 1 0
1228 0 1 -1.1794 7.536826581992527 7.7293089866565765 9.872840162721799 1 0 0
889 0 1 -1.1794 6.87918680978525 4.774957868721812 12.281958515265407 0 2 0
1035 0 2 0.5897 1.5999436850084117 8.963463614220924 10.72761089455608 0 0 1
246 0 2 0.5897 2.7832620922193296 9.02699794276334 8.602179078006042 1 1 0
1034 0 2 0.5897 1.4940942825261336 10.434257791195542 10.18356471669517 0 0 1
1033 0 1 -1.1794 1.4996049243259653 9.493144210758416 9.908662857622716 0 0 1
1078 0 1 -1.1794 4.577493429872663 8.223421148800421 11.756428655557242 0 0 0
1079 0 2 0.5897 4.545990510325496 9.137592331168571 11.467632154941377 0 0 0
270 0 2 0.5897 4.823439260593007 11.444269658458714 10.385743509744598 0 0 0
268 0 1 -1.1794 4.860292466630113 11.005190017139688 11.24489291418801 0 0 0
269 0 2 0.5897 4.030019823626397 11.126104153448262 11.746191377193053 0 0 0
2145 0 2 0.5897 6.699809529469785 10.758376060774868 11.177359908977374 0 0 1
1080 0 2 0.5897 5.2732934074819005 8.196242302092063 12.400056618966646 0 0 0
1229 0 2 0.5897 7.942822720152721 8.17143812608753 10.625183920011425 1 0 0
1230 0 2 0.5897 7.0687599026226335 8.409326406535572 9.387523835612376 1 0 0
1000 0 1 -1.1794 8.80990973695198 8.050269616042907 12.249567161441705 1 0 0
2144 0 2 0.5897 7.984052259431801 10.860967575192188 10.41014178049126 0 0 1
844 0 1 -1.1794 9.008910848340463 11.138343608134301 8.928651194286774 0 0 0
787 0 1 -1.1794 12.128248353997035 9.396509852246451 10.78870900754956 0 0 0
788 0 2 0.5897 12.192890951723818 8.947420356646806 11.644583569084215 1 0 0
2143 0 1 -1.1794 7.622898137489352 10.509830725969513 11.231194970466484 0 0 1
846 0 2 0.5897 9.574696420073202 11.928129504441435 9.089282269098646 0 0 0
1002 0 2 0.5897 9.529341887711126 8.679326849367044 12.439826773107873 1 0 0
1010 0 2 0.5897 10.100233567804965 11.754111444548595 12.438137039062797 0 -1 0
335 0 2 0.5897 4.0109403969047195 15.765412564911395 8.387432609854635 0 0 1
103 0 1 -1.1794 1.2194234989959136 12.273265253595453 10.253946248466328 0 0 0
1764 0 2 0.5897 4.4958674979414734 12.56971582714488 8.353337632697327 1 0 0
1762 0 1 -1.1794 5.238281382403071 12.15228796638089 8.939411936809476 1 0 0
104 0 2 0.5897 1.73784642661142 12.355140285100543 9.415579425769431 0 0 0
1993 0 1 -1.1794 1.9919269632073604 14.493258416837124 11.869456025148969 1 0 0
1995 0 2 0.5897 2.91759568316232 14.283984830484007 11.988588687451204 1 0 0
105 0 2 0.5897 1.5230374264370443 13.048144357964759 10.767859570018171 0 0 0
1046 0 2 0.5897 5.134590825109518 14.399088568796568 10.073310321701744 0 0 0
769 0 1 -1.1794 4.871160754580927 13.803745506390959 11.916787972192171 0 0 0
1107 0 2 0.5897 1.4214298750197405 15.725526753257757 10.846079057653936 0 0 0
1106 0 2 0.5897 1.9469735246433189 16.026891375176767 9.419541580190753 0 0 0
770 0 2 0.5897 5.586856333158254 14.216746563711089 12.410727416184551 0 0 0
771 0 2 0.5897 5.065637953332299 12.837295653407612 11.899900380614243 0 0 0
1045 0 1 -1.1794 5.3161630869102705 15.092562752338505 9.456303703255546 0 0 0
1047 0 2 0.5897 5.968652754976122 15.728723141530535 9.859731420808558 0 0 0
2019 0 2 0.5897 10.211397361601906 14.25406974892523 9.061492325729594 0 -1 0
2017 0 1 -1.1794 10.469747995392165 13.395563456801698 9.337674980744874 0 -1 0
54 0 2 0.5897 8.088382870261338 14.329617070425874 9.96470296918772 0 0 0
1569 0 2 0.5897 9.8746433176375 15.545775455731158 11.21655849011047 0 -2 0
52 0 1 -1.1794 7.987905582418727 14.167658041693098 10.909694950335258 0 0 0
2018 0 2 0.5897 10.653393402267465 13.38137418906464 10.306616797379958 1 -1 0
1240 0 1 -1.1794 8.970630637409839 15.439931132667795 8.658319352369894 1 0 0
53 0 2 0.5897 8.696339455907445 13.56987086839407 11.13120264570047 0 0 0
1009 0 1 -1.1794 10.148708399647067 12.684314103931458 12.155670098297314 0 -1 0
1567 0 1 -1.1794 10.793625827738923 15.923482143234462 11.363663555820562 0 -2 0
2118 0 2 0.5897 7.468067650428971 15.315995614493149 11.983895875887146 0 0 1
2086 0 1 -1.1794 5.756591763242348 19.213557056699152 8.36841811616163 0 -1 1
2087 0 2 0.5897 4.869041164840066 19.49523490483846 8.38366733675482 0 -1 1
1280 0 2 0.5897 4.486500131969402 19.521293647724445 11.367488902965972 1 0 -1
1105 0 1 -1.1794 1.377683854536401 16.399644870286185 10.203057754185561 0 0 0
1484 0 2 0.5897 2.76589967238614 19.95249371256655 9.159105554294056 1 0 0
1824 0 2 0.5897 4.480413331634985 17.194792315286136 10.335521969011863 0 -2 1
1822 0 1 -1.1794 4.549126571590899 17.584116480257844 11.199154155287948 0 -2 1
1823 0 2 0.5897 5.000193899318322 16.911634085056225 11.761035686206828 0 -2 1
2112 0 2 0.5897 2.8514965092735087 17.64482521998697 12.356645017526342 0 0 0
2039 0 2 0.5897 1.3857542005432664 19.549567585538803 11.209967319054588 0 1 0
2038 0 1 -1.1794 1.4465761103439099 19.146419540982514 10.323891926272553 0 1 0
2040 0 2 0.5897 1.4317710768440337 18.2216604127742 10.50214210693694 0 1 0
80 0 2 0.5897 6.541959816448394 17.836990754918855 9.227388975413927 0 0 0
1616 0 2 0.5897 8.131303600521829 19.65216252537141 9.559192575922738 0 -2 -1
79 0 1 -1.1794 7.046141734801801 17.1526055838301 9.721061322793938 0 0 0
1568 0 2 0.5897 10.998872763963183 16.292323029759558 10.526142664876543 0 -2 0
1242 0 2 0.5897 8.512677657138056 16.266692646696665 8.750948918531428 1 0 0
567 0 2 0.5897 12.058833733847855 18.1224143364625 9.778463402792093 0 0 0
566 0 2 0.5897 10.591216904301591 18.140943185079227 9.170744035691827 0 0 1
81 0 2 0.5897 7.202281009425928 17.45286029214999 10.624001681357592 0 0 0
565 0 1 -1.1794 11.44368286250189 17.76614298408347 9.114516287640122 0 0 1
2080 0 1 -1.1794 8.578067731314572 18.526527332905108 11.840967744655341 0 -1 -1
2116 0 1 -1.1794 6.969981930262017 16.091740666791576 12.284709686743989 0 0 1
2082 0 2 0.5897 8.232195045033956 19.37696147746252 12.170756522774058 0 -1 -1
2081 0 2 0.5897 8.170573422676373 17.768973736413876 12.26266985824585 0 -1 -1
1111 0 1 -1.1794 1.2997766080579058 3.204219400694477 16.579523937556676 0 0 -1
1019 0 2 0.5897 1.3307940354387877 1.4923899461264813 12.601389182327138 0 0 0
1112 0 2 0.5897 1.9489340060330442 2.6433840523946985 16.20389239955463 0 0 -1
329 0 2 0.5897 4.375711186013124 2.1962902685201455 14.874549270403074 0 0 1
328 0 1 -1.1794 3.409747239302277 2.2983934325818662 14.900106919949373 0 0 1
330 0 2 0.5897 3.2567572181571607 3.0363191324847936 14.275463647346257 0 0 1
550 0 1 -1.1794 6.138885718774118 2.8537813240922185 14.617379687610597 0 -1 -1
140 0 2 0.5897 2.8882303179990707 0.6250247533749588 14.780060419808477 0 0 0
551 0 2 0.5897 6.448671598215674 2.3573699197681224 13.863487918968884 0 0 -1
552 0 2 0.5897 6.206521854419586 3.7823436798232755 14.487556699311261 0 -1 -1
130 0 1 -1.1794 7.17855438123063 0.9295584943491622 12.582868240109285 0 0 0
611 0 2 0.5897 7.20875875744434 2.448770312784772 15.901051887786252 0 0 -1
2073 0 2 0.5897 9.860078834543415 2.1111196805149883 12.83435726931219 0 -1 0
1015 0 1 -1.1794 11.266331313537158 0.7683995089299072 13.258465447384227 0 0 0
1085 0 2 0.5897 10.231842824437077 0.8955351496215102 14.670711462039485 0 0 -1
1086 0 2 0.5897 9.182029425428341 1.140166410836288 15.835977940159667 0 0 -1
1084 0 1 -1.1794 9.976449075617563 0.6561525233342197 15.605843263088776 0 0 -1
1299 0 2 0.5897 11.554091739167475 3.7859930607018035 15.393885917807323 0 1 -1
345 0 2 0.5897 11.140503991863383 1.9536700501536834 16.50252490895586 0 1 -1
610 0 1 -1.1794 7.74958350445115 1.996438202165298 16.617169297981032 0 0 -1
1017 0 2 0.5897 11.90721522370562 0.21934298504481903 13.758076383013435 0 0 0
1113 0 2 0.5897 1.6763403572107682 4.052983737680263 16.36036655010173 0 0 -1
1864 0 1 -1.1794 2.1657277552126306 5.834679240733726 16.626341384040877 0 1 -1
848 0 2 0.5897 1.8276719750420858 4.664331209139934 13.256732288498847 0 1 0
847 0 1 -1.1794 2.795671559841847 4.574068613885609 13.300625793673543 0 1 0
1846 0 1 -1.1794 3.630614169518885 6.790328285397852 14.411259939784703 0 1 0
1847 0 2 0.5897 4.540179457365919 6.702957826591163 14.694023866439528 0 1 0
1848 0 2 0.5897 3.414479823007348 5.868655680431133 14.037284025402185 0 1 0