LAMMPS data file via write_data, version 23 Jun 2022, timestep = 11485000

2268 atoms
2 atom types

0.9670378292828623 46.48366117070373 xlo xhi
0 20.047001 ylo yhi
0 20.857 zlo zhi

Masses

1 1.008
2 15.999

Atoms # full

61 0 1 -1.1794 5.137627835031083 1.1287742989399592 0.6733443739840981 0 1 0
66 0 2 0.5897 4.710075631627767 2.2862680191810525 1.7379425767169194 0 -1 0
513 0 2 0.5897 3.0961206793258618 2.580919014054551 3.3002054207756584 0 0 0
64 0 1 -1.1794 4.627918642885096 2.8477897299619976 2.5740521197216495 0 -1 0
1365 0 2 0.5897 5.627837521701302 2.9415085920870054 4.0647804645641905 0 -2 -1
30 0 2 0.5897 1.3487949200325544 1.9991890681595108 0.9940672527255346 0 0 1
512 0 2 0.5897 1.5436932518327904 2.5447814094090293 3.781571303161171 0 0 0
62 0 2 0.5897 4.8360659982075695 0.456492551088998 1.2972566777793106 0 1 0
28 0 1 -1.1794 1.1689512761296004 0.9375716421316443 0.9467008345302387 0 0 1
29 0 2 0.5897 1.7311229123335206 0.7785145675116611 0.18720189232029513 0 0 1
65 0 2 0.5897 4.455878769057293 3.7782381923032182 2.298501834996542 0 -1 0
511 0 1 -1.1794 2.5006833268385877 2.476505022789381 4.115792700578527 0 0 0
1097 0 2 0.5897 6.860166659402131 1.1566679649400713 0.7772548436311603 0 1 0
1096 0 1 -1.1794 7.829427243572332 1.4338615635830503 0.8704026386391213 0 1 0
1397 0 2 0.5897 7.650697490941709 3.347920043159677 1.1418163635376273 0 1 1
1634 0 2 0.5897 10.381235208777326 2.662354820590056 2.288698377362919 0 -1 2
1633 0 1 -1.1794 10.942138650376263 2.7408618206042705 1.5299696209415976 0 -1 2
539 0 2 0.5897 12.23396884714862 2.125293671280779 0.36468170728998633 0 2 1
2126 0 2 0.5897 8.43470859264831 0.15968449495806614 2.147265899504363 0 0 0
1635 0 2 0.5897 10.844637302350323 3.6571916997727008 1.2721259135169225 0 -1 2
1098 0 2 0.5897 8.370044015375651 1.0106203582104916 0.14158046832941681 0 1 0
138 0 2 0.5897 12.179330310858681 1.0064595950067827 3.5995649673255916 0 1 0
1177 0 1 -1.1794 9.278063794285801 3.292907194069451 3.9087184724988355 0 0 0
1364 0 2 0.5897 7.184544266755725 2.6168950099116683 4.108741944424073 0 -2 -1
816 0 2 0.5897 1.0359246304933285 4.334767674602827 1.8587852795848727 0 1 1
2128 0 1 -1.1794 4.315398831777312 5.5293669787325115 2.6657991974265527 0 0 1
2130 0 2 0.5897 3.3605720962338217 5.674085461951586 2.7597440970668754 0 0 1
586 0 1 -1.1794 1.6108967336002729 5.711840291203586 2.783555895363939 0 0 0
2129 0 2 0.5897 4.666468273671204 5.978185427997774 3.448304894064115 0 0 1
884 0 2 0.5897 5.154248848994496 6.668237166863752 1.4136316239244593 0 1 1
587 0 2 0.5897 1.3819415764096492 6.353192506133159 2.082282268422016 0 0 0
516 0 2 0.5897 5.887951224828902 4.2691286981675125 0.1663326393619823 0 2 1
883 0 1 -1.1794 5.482158553959967 7.427159790651499 0.8380584773485429 0 1 1
1348 0 1 -1.1794 1.1553296544939653 7.6120732450517155 1.0123271854979563 0 0 0
1349 0 2 0.5897 1.8451642417659007 7.419950332498796 0.34216768234139416 0 0 0
885 0 2 0.5897 4.7305942540789765 7.5241603244400626 0.1931140300893814 0 1 1
588 0 2 0.5897 1.2221730994770876 6.085171713746276 3.5937349293555982 0 0 0
1511 0 2 0.5897 12.150503961828088 5.648547384268373 0.4295688191555884 1 1 -1
1396 0 1 -1.1794 7.491118194723953 4.332063485488736 1.1220706286711408 0 1 1
1398 0 2 0.5897 7.727676180153911 4.7884736901534515 1.9886715904410615 0 1 1
1366 0 1 -1.1794 8.21488698109292 6.051875418894545 3.200113808306932 0 0 -1
2074 0 1 -1.1794 10.994549732400937 6.798750090045166 3.2419964088954627 0 0 0
1368 0 2 0.5897 8.016461612296311 6.860525524047462 2.6863467865647164 0 0 -1
1367 0 2 0.5897 7.453240960417147 6.244135754341038 3.8271676374502315 0 0 -1
1510 0 1 -1.1794 11.309102313480631 5.489555347165035 0.8957671283731438 1 1 -1
2076 0 2 0.5897 10.108354801116937 6.516580719724467 3.4017816479635816 0 0 0
1638 0 2 0.5897 7.05058419904885 7.985231375777245 0.9521972911603692 0 -1 -1
1512 0 2 0.5897 11.31092528329466 6.133001591552573 1.6438155783928805 0 1 -1
2075 0 2 0.5897 11.574680948223053 6.760348141218296 4.03579056181052 0 0 0
1615 0 1 -1.1794 4.957662809002633 9.394862596917331 2.6166583588895396 0 -2 -1
1617 0 2 0.5897 5.0403669122117085 8.80993994232893 1.8755315950852056 0 -2 -1
1616 0 2 0.5897 4.826190330016745 10.308636003009148 2.2777697819207785 0 -2 -1
507 0 2 0.5897 3.2715114571347472 9.013731282814646 3.4921225373571696 0 0 1
6 0 2 0.5897 5.914498497688208 9.198946780587919 3.9454761988621176 0 0 2
505 0 1 -1.1794 2.4356277193082616 9.192633183167066 3.998398340494074 0 0 1
2247 0 2 0.5897 1.9758891233477183 11.59612227962769 2.5838900267135814 1 0 0
356 0 2 0.5897 1.2566940632834185 9.532811620876911 1.347976623843789 0 0 1
77 0 2 0.5897 6.358496397022403 11.257462503490617 0.24089922081208137 0 1 0
355 0 1 -1.1794 1.3585821803975695 10.476819508820203 1.1814473291454026 0 0 1
1254 0 2 0.5897 2.5432866907225247 10.958675509946252 0.022751670621386843 1 0 1
1637 0 2 0.5897 8.603807128254072 8.054974507238125 0.6867046132860276 0 -1 -1
2141 0 2 0.5897 10.35244051244035 8.84040205521869 1.6983254785805493 0 1 2
1636 0 1 -1.1794 7.921318604544362 8.119440568185638 1.3357007095684035 0 -1 -1
422 0 2 0.5897 7.900376623186468 9.986369494809448 1.6144395811737906 0 0 0
421 0 1 -1.1794 7.947637887174988 10.87402506957229 1.2714008685667644 0 0 0
1373 0 2 0.5897 9.759105377316965 10.194088975762591 3.2180540320608135 0 1 0
2140 0 1 -1.1794 10.973552242728728 9.526321767044452 1.8504667299632964 0 1 2
423 0 2 0.5897 8.25306786820352 11.565840192282147 1.8900435673808849 0 0 0
2142 0 2 0.5897 11.082508079926829 9.982548888784848 1.002589913386065 0 1 2
1372 0 1 -1.1794 9.411362962647798 9.905185665096887 4.102219606811133 0 1 0
1597 0 1 -1.1794 11.3837444891882 11.785985500108064 0.19637059360695736 0 1 0
1800 0 2 0.5897 12.107129053486291 9.699178323909795 3.299664699190546 0 -1 -1
13 0 1 -1.1794 5.02326904276738 12.078133535958866 2.907637833841363 0 -1 0
107 0 2 0.5897 4.998320370103548 13.379129446630527 1.1942344947202894 0 0 0
2245 0 1 -1.1794 2.293920116764246 12.275342328940974 3.1800012635533705 1 0 0
15 0 2 0.5897 4.213744733319039 12.346704885443668 3.3115219717119113 0 -1 0
14 0 2 0.5897 5.79060830198119 12.517963722073386 3.3707824067514838 0 -1 0
108 0 2 0.5897 4.856335141613341 14.89000362255214 1.0058489145577774 0 0 0
106 0 1 -1.1794 5.147697060370387 14.136746040375286 0.5397149436005153 0 0 0
807 0 2 0.5897 1.8131387672003947 13.527140542221584 1.666083353190019 0 0 0
805 0 1 -1.1794 1.4651651527387057 14.186296734469025 1.0264004308467063 0 0 0
806 0 2 0.5897 2.084026845096041 14.336836422093283 0.27325973480893245 0 0 0
2246 0 2 0.5897 1.5452649138595818 12.525108450384948 3.710727712254132 1 -1 0
2097 0 2 0.5897 1.2152668677176899 16.02011406738926 1.4301924934659784 0 -1 1
1032 0 2 0.5897 6.707678101036123 14.94265478039795 0.7937985589779162 0 0 2
632 0 2 0.5897 11.617385353686384 12.64103850231978 1.6895705621810537 0 2 -2
631 0 1 -1.1794 11.672681963038352 12.999170819495967 2.6130650060291276 0 2 -2
2055 0 2 0.5897 8.364138965683882 13.966647184989354 2.1976532364678096 0 0 0
2053 0 1 -1.1794 8.784792934901972 13.233416834900138 2.691310058355967 0 0 1
2054 0 2 0.5897 9.735892474511155 13.226087783717004 2.616686625121998 0 0 1
1030 0 1 -1.1794 7.59409806912496 15.19378262526067 1.1076757678003213 0 -1 2
17 0 2 0.5897 11.6095087834475 14.925397330971661 2.233436457576088 0 -1 -1
16 0 1 -1.1794 11.673354431618668 15.918479726103772 2.193392987222198 0 -1 -1
1385 0 2 0.5897 8.64996947559737 15.784134112589028 3.5306903898098683 0 0 0
1380 0 2 0.5897 8.833361677475612 14.941965238325137 0.08498687464498422 0 0 0
1815 0 2 0.5897 1.5833864445676655 19.752966873191372 2.1673495580161286 0 -1 0
1758 0 2 0.5897 5.348379177265389 16.386377187838654 2.8690289520738945 1 -1 1
1757 0 2 0.5897 3.8680439732183687 16.070996003617605 2.8054639561699783 1 -1 1
1756 0 1 -1.1794 4.582032095030737 16.343311582204702 2.29672650186964 1 -1 1
2095 0 1 -1.1794 1.2490270123950866 16.956474800456363 1.3045167952365564 0 -1 1
1813 0 1 -1.1794 1.7909693164382805 19.046591322889984 2.820225636926881 0 -1 0
1814 0 2 0.5897 2.739642710167936 19.221493050147483 3.071782194833689 0 -1 0
1601 0 2 0.5897 5.242854112557389 19.08651256783684 2.996299432956786 0 0 0
1600 0 1 -1.1794 4.5283723500021615 19.121542853133292 2.330418346725538 0 0 0
1602 0 2 0.5897 4.311663165423344 18.201459042935635 2.1309872703159836 0 0 0
2096 0 2 0.5897 1.5402648663609648 17.51536921213471 2.052754843441181 0 -1 1
371 0 2 0.5897 6.209217696683125 17.67790763031346 0.13882258516035734 0 0 2
1031 0 2 0.5897 7.681934488033 16.153823126595302 1.2273202490734305 0 -1 2
1386 0 2 0.5897 10.190199660565314 16.13206774889157 3.172688585200161 0 0 0
2125 0 1 -1.1794 8.709946737604561 19.596279962511694 2.8165571975448107 0 -1 0
2127 0 2 0.5897 7.976392142475668 19.547670833284222 3.440184573594277 0 -1 0
1675 0 1 -1.1794 11.413337628659463 19.362092243559204 3.419220593553194 0 0 1
1676 0 2 0.5897 10.457431174023272 19.515868413136655 3.443034479393224 0 0 1
881 0 2 0.5897 8.06723419012971 18.37552345808586 1.5986196277098512 0 -1 1
1677 0 2 0.5897 11.592916604307296 19.097639511717972 2.4673399860544447 0 0 1
880 0 1 -1.1794 7.939066084215896 17.845807119939185 0.8129946517738604 0 -1 1
882 0 2 0.5897 8.698745946995071 17.95610200371549 0.20474849000497003 0 -1 1
94 0 1 -1.1794 12.186148016849822 18.2866772898432 0.8640766984591582 0 0 2
95 0 2 0.5897 11.960494391547808 17.42684870151965 1.2187254194768296 0 0 2
96 0 2 0.5897 11.456205306352885 18.34888790761672 0.17997382224518646 0 0 2
1384 0 1 -1.1794 9.517036142456856 16.058888795216316 3.9008047294588843 0 0 0
1363 0 1 -1.1794 6.382301886989056 2.636799891064373 4.69771578137183 0 -2 -1
1143 0 2 0.5897 3.008540789932045 0.8021448874086211 5.137912885430836 0 1 1
1141 0 1 -1.1794 2.9073255919935175 0.27462234432941085 5.945827255466046 0 1 1
1142 0 2 0.5897 2.081343852394564 0.6657214808265048 6.3438048464622705 0 1 1
1026 0 2 0.5897 4.075150276160927 1.0354273748159908 6.947041454025846 0 1 0
1024 0 1 -1.1794 4.747769443779397 1.2903248691270528 7.5886378981581615 0 1 0
1878 0 2 0.5897 5.907141191899327 3.9691137985494978 6.007041685757317 0 0 1
510 0 2 0.5897 1.1375393112598702 1.8938402254013103 8.159225395423512 0 -1 0
1270 0 1 -1.1794 1.017186476477562 3.5377910992009096 8.331317032220948 0 0 0
524 0 2 0.5897 6.173691854492991 0.6101084329732466 4.566522334529898 0 0 0
590 0 2 0.5897 6.541478790600484 1.4730671580071937 7.460836381098922 0 0 0
2063 0 2 0.5897 2.681058710273194 3.6267499772648804 5.288307108752726 0 0 1
1272 0 2 0.5897 1.5377336968336457 3.7508300486330364 7.544390237807056 0 0 0
1025 0 2 0.5897 4.664409917745324 0.5764424320922853 8.303740868537359 0 1 0
508 0 1 -1.1794 1.0808800153859683 1.0180743072749328 7.724986793782873 0 -1 0
1178 0 2 0.5897 9.443676975361635 2.5947426090294905 4.550956547388419 0 0 0
1014 0 2 0.5897 9.018215796973447 1.548860639225779 6.2791397779070355 0 -1 2
1012 0 1 -1.1794 9.60839252368086 1.114049765461408 5.689406275990866 0 -1 2
870 0 2 0.5897 11.952549249249609 2.9624798759005837 5.254280196340839 0 -1 0
868 0 1 -1.1794 11.847864966722206 3.443775725298695 6.106423623732732 0 -1 0
589 0 1 -1.1794 7.531206637390496 1.67154943424099 7.492353563755441 0 0 0
2 0 2 0.5897 10.97788312626287 1.1733164420195068 6.817405637810571 0 -2 1
1 0 1 -1.1794 11.59966244700912 0.6016918857740984 7.327163310298401 0 -2 1
114 0 2 0.5897 11.036759190489736 3.0669250670097554 8.047139785104692 0 -1 -1
1013 0 2 0.5897 9.382051175118132 0.2005531748045942 5.8647566197266965 1 -1 2
591 0 2 0.5897 7.603448707345699 2.648293822663559 7.415603981892411 0 0 0
3 0 2 0.5897 12.33253998650254 1.177113263671875 7.705637368180612 0 -2 1
1876 0 1 -1.1794 5.4258080126124995 4.671002414747839 6.437838877124246 0 0 1
1877 0 2 0.5897 4.547828209332916 4.2717845439074775 6.633734331012573 0 0 1
2064 0 2 0.5897 2.6115186599522624 5.0574616514383655 5.973495848439574 0 0 1
2062 0 1 -1.1794 2.731339713006357 4.129325982275421 6.10340759348632 0 0 1
244 0 1 -1.1794 2.703652912452471 6.9596795270224385 5.801804874451591 1 0 0
1332 0 2 0.5897 5.731589947615072 5.941809078519407 5.349076185756451 0 0 0
245 0 2 0.5897 3.5872403568947977 7.181915402507171 6.170138807967108 1 0 0
246 0 2 0.5897 2.080354768191974 7.178811303696647 6.497119295427371 1 1 0
266 0 2 0.5897 5.993411898042729 7.687770499223948 7.378849117151927 0 1 1
1033 0 1 -1.1794 1.0716287006706084 7.842315192878028 7.94193922869206 0 0 1
1331 0 2 0.5897 6.19152604110374 7.481636033248836 4.954056442266396 0 0 0
1330 0 1 -1.1794 5.88945326140169 6.596582431692489 4.59418137060484 0 0 0
265 0 1 -1.1794 4.987879833990795 7.82994633563257 7.563922660070854 0 1 1
1179 0 2 0.5897 9.249260708892157 4.145486078118676 4.425316908348574 0 0 0
869 0 2 0.5897 11.130558513293062 4.067632957855197 5.895593148444722 0 -1 0
377 0 2 0.5897 6.789364515670711 4.567309967038222 7.784536319084324 0 0 -1
133 0 1 -1.1794 9.55115414225272 5.090262860242884 5.939260393800763 0 2 2
134 0 2 0.5897 8.975556546642693 5.063166718277991 6.6925406609879134 0 2 2
135 0 2 0.5897 9.661518015151483 6.070797360536797 5.721027763037052 0 2 2
2191 0 1 -1.1794 10.004965215843628 7.951447357286367 5.799432619211672 0 -2 0
376 0 1 -1.1794 7.75594252275776 4.522569507854569 8.013983849694515 0 0 -1
642 0 2 0.5897 8.048831874859502 7.773513556830938 8.253355954060133 0 1 -1
607 0 1 -1.1794 12.09924665758983 7.939954721631334 7.840841416839971 0 1 0
4 0 1 -1.1794 6.482711570843466 9.094158258477421 4.723613960807732 0 0 2
506 0 2 0.5897 2.5008426827903234 8.41982420825248 4.563336621301706 0 0 1
639 0 2 0.5897 2.986173646912195 10.695174492161078 5.030208365215593 0 -1 0
104 0 2 0.5897 2.302006523521303 10.90435716812719 7.137118989024123 0 0 0
1762 0 1 -1.1794 5.864133551576483 11.138883526693247 6.536763991216232 1 0 0
638 0 2 0.5897 4.124570563181933 10.842642544801263 5.898577535348465 0 -1 0
637 0 1 -1.1794 3.258942274410665 11.254572932365273 5.7396002405225905 0 -1 0
267 0 2 0.5897 4.978707240255742 8.60136272844815 8.127803643643967 0 1 1
1764 0 2 0.5897 5.970772641059249 10.513436086053094 5.873755057832365 1 0 0
1763 0 2 0.5897 6.564325265648937 11.041046284096332 7.178170544956448 1 0 0
1034 0 2 0.5897 1.2825053471818841 8.727232704577414 8.241181525404155 0 0 1
103 0 1 -1.1794 1.534482205268057 10.655073747100012 7.746428579201797 0 0 0
5 0 2 0.5897 7.348276691865008 9.412706890531942 4.347005282958273 0 0 2
1335 0 2 0.5897 11.946963484770043 11.005709298003673 5.655681630947826 0 -1 1
2192 0 2 0.5897 10.736575523468007 8.064047581613906 6.477966528573932 0 -2 0
641 0 2 0.5897 8.60972404866848 8.112053326037925 6.786340595470217 0 1 -1
640 0 1 -1.1794 7.897075482637123 8.311913318934748 7.480162772558845 0 1 -1
2193 0 2 0.5897 9.936086115214106 8.665717213675972 5.086551833348913 0 -2 0
1374 0 2 0.5897 9.409910909407493 10.660262391544208 4.777668017005099 0 1 0
393 0 2 0.5897 8.970527699266654 11.589593183653806 6.932059058682681 0 -2 0
1334 0 2 0.5897 11.657744959292659 11.294770889876467 7.132608007205389 0 -1 1
874 0 1 -1.1794 8.068064662374757 10.916161681153083 8.192573517394248 0 -2 -1
391 0 1 -1.1794 9.165515358299713 11.700478650740234 6.0098406807762235 0 -2 0
875 0 2 0.5897 8.149597043168232 9.986040990461145 7.992458875557962 0 -1 -1
335 0 2 0.5897 1.6280867275820345 15.76278817998906 4.266322140025434 0 0 1
334 0 1 -1.1794 2.5528010689511587 15.957642940301186 4.198880203590011 0 0 1
1269 0 2 0.5897 6.341782942584041 15.018779185580252 4.720344084515159 0 -2 1
2121 0 2 0.5897 3.2234229247920303 14.502889971669326 5.230120723124652 0 0 -1
2120 0 2 0.5897 3.245897493952658 12.972948657527207 5.616329042898493 0 0 -1
2119 0 1 -1.1794 3.588013124983051 13.83037290017823 5.804354287778619 0 0 -1
1106 0 2 0.5897 2.211857545277702 14.389271837918349 7.159564281715155 0 0 0
51 0 2 0.5897 4.847751229847367 14.053499315860266 6.927195650189703 0 0 -1
49 0 1 -1.1794 5.436575593352816 14.381898081515232 7.653417614044396 0 0 -1
50 0 2 0.5897 6.365405035585379 14.2939700140526 7.317711629053124 0 0 -1
1105 0 1 -1.1794 1.4892671302031006 14.2830693087958 7.8300853738437 0 0 0
1356 0 2 0.5897 6.211153980471737 12.816242911409391 5.789515382399583 0 -1 0
1267 0 1 -1.1794 6.416244384306209 15.883605187751696 4.287287179486268 0 -2 1
1355 0 2 0.5897 7.412801860147343 12.814607963305681 4.871442498286729 0 -1 0
392 0 2 0.5897 9.823624523911088 12.340258173214849 5.93117921872698 0 -2 0
1354 0 1 -1.1794 6.71154434467114 13.38236599744696 5.1177904151764295 0 -1 0
43 0 1 -1.1794 10.529748286290388 14.136739190725802 5.6570639038239365 0 -3 1
1259 0 2 0.5897 8.879710278118885 13.91755820970427 7.130824065505921 1 -1 0
44 0 2 0.5897 11.485403925604176 14.080203816801674 5.453019703712397 0 -3 1
45 0 2 0.5897 10.110511273067624 14.739128153406513 4.9913153122700775 0 -3 1
1166 0 2 0.5897 11.191070549804143 14.403755309499122 7.351119322426254 0 0 0
1258 0 1 -1.1794 8.259457097024962 14.264956017765787 7.811992171012047 1 -1 0
1165 0 1 -1.1794 11.713671798605473 14.317487769747476 8.194522955323004 0 0 0
336 0 2 0.5897 2.754338240136457 16.575749015173134 4.971701145760805 0 0 1
2038 0 1 -1.1794 1.4985262555939078 17.0009776972742 8.110438703250807 0 1 0
1268 0 2 0.5897 6.2505547794199625 16.613136537941475 4.9550798260188 0 -2 1
1485 0 2 0.5897 3.028860818117566 18.56582279843057 6.056993178650198 1 0 0
1483 0 1 -1.1794 3.4265467457770646 17.690561517232688 6.15605788747859 1 0 0
1484 0 2 0.5897 2.878411335706021 17.411486429827093 6.900641437892142 1 0 0
1513 0 1 -1.1794 6.073982222825879 17.874590215583414 6.378039983032823 0 -1 -1
1514 0 2 0.5897 5.185199314085939 17.917207547133337 6.711363346380942 0 -1 -1
525 0 2 0.5897 6.183584540420124 19.277779589212987 5.160732042221574 0 -1 0
1515 0 2 0.5897 6.605091373575518 17.86509366804516 7.1722270102371635 0 -1 -1
523 0 1 -1.1794 6.342010571707658 19.70124564264933 4.329397248237063 0 -1 0
1128 0 2 0.5897 12.193921814987922 18.799947150666608 6.0682726118016985 0 -2 1
1126 0 1 -1.1794 12.04482855922059 18.000119994339894 5.582674142267651 0 -2 1
1577 0 2 0.5897 8.193227239089001 16.1063703741188 7.851134900391162 0 0 -1
2082 0 2 0.5897 9.026209308780878 17.561558100518354 5.035054447772587 0 0 -2
2080 0 1 -1.1794 9.255208715546079 18.128580300519186 5.82640576604557 0 0 -2
2081 0 2 0.5897 10.269414116404176 18.007544181363475 5.768047811442689 0 0 -2
1578 0 2 0.5897 8.822286394511432 17.358082903546048 7.1512831187020005 0 0 -1
1127 0 2 0.5897 12.035823256886404 18.318380715013593 4.608968108689768 0 -2 1
1576 0 1 -1.1794 8.529229315973577 16.975862185246424 8.031265601910148 0 0 -1
509 0 2 0.5897 1.1972557035404339 0.3844471198939115 8.471939447421004 0 -1 0
71 0 2 0.5897 4.544764065928916 2.691282853650381 8.502650625510963 0 0 0
847 0 1 -1.1794 2.759949396643124 2.233654697515149 11.063278466467898 0 1 0
849 0 2 0.5897 3.3984977919872166 2.443623704763055 10.38942403811786 0 1 0
848 0 2 0.5897 1.8970328998717796 2.5868028477645257 10.712758253839512 0 1 0
72 0 2 0.5897 5.333867297272569 3.0824579669579903 9.83952183699249 0 0 0
330 0 2 0.5897 3.2229662705036985 0.8646652493668493 12.262712943499176 0 0 1
70 0 1 -1.1794 4.6545564691036745 3.350740973091344 9.218380042950882 0 0 0
819 0 2 0.5897 6.393363392826964 3.114395335694411 12.11311189143437 0 1 0
818 0 2 0.5897 6.55717635416733 1.698702969265451 11.485849312810828 0 1 0
817 0 1 -1.1794 6.382310202683532 2.6241372563214136 11.29239159454125 0 1 0
1847 0 2 0.5897 2.8691753389906873 3.7186488920640564 12.338954973119215 0 1 0
1053 0 2 0.5897 8.172313784014799 3.3009809548415276 10.662206996749674 0 0 0
1051 0 1 -1.1794 9.145613343038486 3.3735202106447875 10.817163845039614 0 0 0
113 0 2 0.5897 10.300728590626058 3.7107747194161607 9.293918331436675 0 -1 -1
112 0 1 -1.1794 11.172429357496656 3.6308811418161904 8.817297331286131 0 -1 -1
1388 0 2 0.5897 9.4308079922913 2.170708093290113 11.952231501456117 0 0 1
903 0 2 0.5897 11.438010187796761 2.0333316101976444 12.314142021860695 0 1 0
1035 0 2 0.5897 1.2374906640638648 7.217274831689979 8.668145026485421 0 0 1
1614 0 2 0.5897 4.688712370159976 6.583091477754819 8.845416601568456 0 0 -1
1069 0 1 -1.1794 1.7494742443157374 5.841073517706675 9.789642566757614 0 0 0
1613 0 2 0.5897 4.573838377714434 4.9884150085825025 9.31323125331946 0 0 -1
1612 0 1 -1.1794 4.463068779343121 5.9036598522293735 9.506931061807204 0 0 -1
1071 0 2 0.5897 2.7063808142905543 5.820498197948997 9.848146588906669 0 0 0
87 0 2 0.5897 5.7218175163684535 6.371091756032137 11.070654770292128 0 0 0
85 0 1 -1.1794 6.314370997909516 6.638037803255145 11.791776054395557 0 0 0
1070 0 2 0.5897 1.3776980861834491 6.059353947129144 10.683993765796888 0 0 0
1271 0 2 0.5897 1.1943336108121154 4.167644422024361 9.029555731778201 0 0 0
86 0 2 0.5897 6.387888242501166 5.859918369339856 12.299935658771535 0 0 0
2085 0 2 0.5897 3.000500892191232 7.77229382525415 11.918350825917727 0 1 -1
1052 0 2 0.5897 9.276950721064145 4.081997577285511 11.4414257220706 0 0 0
1066 0 1 -1.1794 11.187181523020946 6.262364094524903 9.544589638458284 0 2 -1
378 0 2 0.5897 7.837473349399372 5.153395358622621 8.784192328968354 0 0 -1
298 0 1 -1.1794 8.39296475798027 6.732608793678101 9.764427175637204 0 0 1
299 0 2 0.5897 7.999899352460151 6.653563546883612 10.663188480933895 0 0 1
300 0 2 0.5897 9.359959515450534 6.627771565299944 9.833547901854518 0 0 0
1067 0 2 0.5897 11.186417279067715 5.405530614054272 9.142912527044308 0 2 -1
1068 0 2 0.5897 11.762856444803074 6.202734644668437 10.307799418565065 0 2 -1
608 0 2 0.5897 11.863848866817277 7.213641264264096 8.49444274862134 0 1 0
105 0 2 0.5897 1.6745430483453803 11.227152036861252 8.545842928654253 0 0 0
2023 0 1 -1.1794 4.909131790698151 9.909705291587104 9.643855814811808 0 0 0
2024 0 2 0.5897 5.47568909890646 9.734463385785766 10.427108232631726 0 0 0
1772 0 2 0.5897 3.3389024097085014 9.59775643352915 10.402609078463323 0 -1 0
1771 0 1 -1.1794 2.7865712613781533 9.486022170022338 11.203360502815993 0 -1 0
2025 0 2 0.5897 4.881025763345637 10.839040600693371 9.442589943633921 0 0 0
1773 0 2 0.5897 1.838970007066252 9.48091141127921 10.969407862401255 0 -1 0
33 0 2 0.5897 6.488731563274514 8.500639852951652 11.696221514696884 0 -1 1
31 0 1 -1.1794 6.651558796020368 9.436669057349576 11.527767712871256 0 -1 0
1572 0 2 0.5897 11.276194543061914 9.520852780156364 8.497929010804038 0 1 -1
1305 0 2 0.5897 9.57397841876703 8.564493870934092 12.333775908690873 0 0 0
1571 0 2 0.5897 11.615526497547107 10.536483848515005 9.552611217168167 0 1 -1
1920 0 2 0.5897 11.990354441306351 10.448688971456315 12.507170407431333 0 1 0
1570 0 1 -1.1794 10.992555391496335 10.368918510553259 8.87486086568914 0 1 -1
876 0 2 0.5897 8.27463864200771 11.10681325877904 9.141494460517109 0 -2 -1
32 0 2 0.5897 7.6105647455478875 9.442075671727476 11.274575493924745 0 -1 0
1150 0 1 -1.1794 9.228878919751573 9.448994851195573 11.06439953183903 0 0 0
1151 0 2 0.5897 9.5451634986873 9.613195278780108 10.191093868655653 0 0 0
1152 0 2 0.5897 9.337591452026572 10.29496127781756 11.493642041565328 0 0 0
1918 0 1 -1.1794 12.259057534616515 10.597072573670513 11.556322889714286 0 1 0
1107 0 2 0.5897 1.8498403522796978 13.794152354621207 8.622329412942163 0 0 0
270 0 2 0.5897 4.752957151201224 13.149940257084115 8.821300274153016 0 0 0
2184 0 2 0.5897 4.8316430123868646 15.940221294400324 8.533548516123538 0 0 0
268 0 1 -1.1794 4.709977231058384 12.54766392010126 9.604028443584145 0 0 0
1993 0 1 -1.1794 2.08856668636261 12.380327906627455 9.87675552755501 1 0 0
1994 0 2 0.5897 3.0921259649055295 12.352285540299086 9.898196134813404 1 0 0
269 0 2 0.5897 5.31715047157316 12.99480915074041 10.295724760740294 0 0 0
1058 0 2 0.5897 3.1446697576219336 14.012592045251044 11.815143397266839 0 0 -1
346 0 1 -1.1794 6.409078727359556 13.26450276829236 11.455565156670898 0 0 2
348 0 2 0.5897 6.270665536256163 12.719754738373414 12.24151456776641 0 0 1
1995 0 2 0.5897 1.6705794643682135 12.549204089765801 10.717543782423324 1 0 0
2110 0 1 -1.1794 2.6897289108225424 15.662335646400779 11.030262383437975 0 0 0
2111 0 2 0.5897 1.7373869758898473 15.840821843034192 10.744840239302551 0 0 0
2112 0 2 0.5897 3.306281936678175 15.917155843187297 10.278194213264431 0 0 0
273 0 2 0.5897 12.094308385446572 15.729213283092754 11.043201630666019 0 0 0
1260 0 2 0.5897 8.344942995985274 13.750294143758792 8.684955288160582 1 -1 0
347 0 2 0.5897 6.661736487161971 14.17340895624786 11.697351406412137 0 0 1
1516 0 1 -1.1794 6.766986104085307 15.959506594812929 11.192460584558972 0 0 -1
1167 0 2 0.5897 11.262419705506728 13.712904329149872 8.857028384597294 0 0 0
36 0 2 0.5897 11.69252467703334 12.150947546070265 11.210852885163275 0 0 1
1579 0 1 -1.1794 8.737109759680608 12.899978174429139 9.970298674524322 0 1 -1
34 0 1 -1.1794 11.338020256358824 12.96590945427652 10.763760660640317 0 0 1
1580 0 2 0.5897 9.547195881878462 13.04157463242998 10.488695602437685 0 1 -1
1581 0 2 0.5897 8.047835945299042 13.226065332433713 10.60293907879193 0 1 -1
35 0 2 0.5897 11.376961127557028 13.687648271363715 11.427277096126542 0 0 1
528 0 2 0.5897 11.97888628541929 15.837056481365384 9.021169308749732 0 0 1
271 0 1 -1.1794 11.418523266309649 15.587622002710807 11.804629657173304 0 0 0
2040 0 2 0.5897 1.454917864345052 16.082897242106753 8.469620734237878 0 1 0
1822 0 1 -1.1794 6.617389674452689 19.930274230944708 11.562222956360745 0 -2 1
2183 0 2 0.5897 5.624500194489427 16.414230918382877 9.74562152090081 0 0 0
2039 0 2 0.5897 1.4297046299730747 17.623981188035938 8.832941913701804 0 1 0
1281 0 2 0.5897 5.132529053790766 19.458615127077376 10.540431949132854 0 1 -1
1279 0 1 -1.1794 4.532887893083576 19.43894037660604 9.718616446389717 0 1 -1
1018 0 1 -1.1794 1.7606185864796502 19.33518058698366 9.661490899021757 0 -1 0
1020 0 2 0.5897 2.6925126524785945 19.50741402280284 9.769035074489269 0 -1 0
2182 0 1 -1.1794 4.838968849512128 16.595473267620854 9.231119299795099 0 0 0
1280 0 2 0.5897 4.692828646885835 18.51185314612392 9.515338734205264 1 0 -1
1517 0 2 0.5897 6.560979154785801 16.60525486695574 11.897301494424152 0 0 -1
140 0 2 0.5897 3.5073931345475713 16.967473074993002 12.283039995776875 0 -1 0
1019 0 2 0.5897 1.386535545272569 19.564587417635334 10.500919188164016 0 -1 0
1823 0 2 0.5897 6.555208858393054 19.252394515087452 12.32110773511278 0 -2 1
2051 0 2 0.5897 9.872495121791735 16.406201458854422 11.139930109536854 0 -1 0
291 0 2 0.5897 7.903592064911087 19.93407911934819 8.465131231710325 0 -3 -1
1518 0 2 0.5897 7.699529607664172 16.16129194050993 10.98524002259239 0 0 0
2050 0 1 -1.1794 9.13178896790807 16.92546161823108 10.818438577461492 0 -1 0
2052 0 2 0.5897 9.118664869908288 16.78863128460587 9.835894868461013 0 -1 0
1824 0 2 0.5897 7.3544219297211955 19.587050214648873 10.922903933190991 0 -2 1
123 0 2 0.5897 11.291520038180462 19.61735277221954 8.504646444934691 0 0 1
527 0 2 0.5897 12.007833439406062 17.32995065993986 9.512919040518641 0 0 1
121 0 1 -1.1794 11.138736798930918 19.09516697689502 9.363606689101672 0 0 1
122 0 2 0.5897 10.223440116253805 19.214595955296172 9.582690443213728 0 0 1
289 0 1 -1.1794 8.122689379283083 19.43662082287095 9.22407081322793 0 -3 -1
290 0 2 0.5897 8.3226451394727 18.548335950630698 8.89779946687502 0 -3 -1
1299 0 2 0.5897 9.422211202091923 18.250143655359206 12.092897134074784 0 1 -1
328 0 1 -1.1794 3.4014657692745955 0.2908595527428936 13.00375855503938 0 0 1
1111 0 1 -1.1794 1.5062040289741696 0.9833622291158293 14.77748057305 0 0 -1
612 0 2 0.5897 5.06164379854826 0.784608030584097 14.121868180776348 0 0 -1
610 0 1 -1.1794 5.473490762100046 1.231438055726979 14.858510702039748 0 0 -1
1112 0 2 0.5897 2.1383247577697695 0.8264231092471301 14.08819682046215 0 0 -1
551 0 2 0.5897 5.084796098681372 2.934721765482353 15.47319990558862 0 0 -1
1113 0 2 0.5897 1.4860806523338472 1.966637935319222 14.950678286154426 0 0 -1
550 0 1 -1.1794 5.13008220102381 3.62414839039295 16.112508265621194 0 -1 -1
611 0 2 0.5897 5.354894293815911 0.621805621017542 15.62069301436635 0 0 -1
1864 0 1 -1.1794 1.6874903086092152 3.642128579964013 15.31190876375553 0 1 -1
1866 0 2 0.5897 2.313248419603979 3.9743772912391484 14.60690356492424 0 1 -1
1387 0 1 -1.1794 9.749932399789785 1.5394390128654534 12.604903755897897 0 0 1
1278 0 2 0.5897 11.208951463151859 3.77680791150889 16.153507199343736 0 1 2
2147 0 2 0.5897 7.1940689356301055 1.70771118428479 14.912853318849328 0 2 -1
1389 0 2 0.5897 9.191304669140441 1.642387898576949 13.381808689563776 0 0 1
2146 0 1 -1.1794 8.177981753632011 1.832851030614229 14.997365411572906 0 2 -1
554 0 2 0.5897 8.281920658457617 3.662071988957153 15.545068866475818 0 1 2
2148 0 2 0.5897 8.379490565527217 1.1099316255805651 15.617738770931767 0 2 -1
1276 0 1 -1.1794 10.943627368922767 2.810030033086259 16.205653972499015 0 1 2
1277 0 2 0.5897 10.47936734061313 2.5934849350249687 15.362806626654006 0 1 2
1848 0 2 0.5897 3.134560085401034 5.235273613515741 12.75879316622569 0 1 0
56 0 2 0.5897 1.5060205155509003 7.07444622652142 15.23657713473609 0 0 0
130 0 1 -1.1794 5.892993213082779 4.333640713893845 13.223782218293179 0 -1 1
2083 0 1 -1.1794 2.9201721253647435 7.0591016222180745 12.52967833097697 0 1 -1
131 0 2 0.5897 4.9264336538595135 4.319395412178288 13.415984708404729 0 -1 1
1846 0 1 -1.1794 3.1537375367766516 4.2920438481292615 13.052982164997314 0 1 0
1865 0 2 0.5897 1.6438544887317472 4.306803215124328 15.993801477232939 0 1 -1
1625 0 2 0.5897 4.744956863181779 7.283212143381667 15.25626526621813 0 1 0
2084 0 2 0.5897 2.1790399517301116 7.287111622051012 13.106596462985975 0 1 -1
1626 0 2 0.5897 4.504512133115743 7.830354228642509 13.731886864839874 0 1 0
1624 0 1 -1.1794 4.993539671764835 7.869708468729546 14.54871444401685 0 1 0
55 0 1 -1.1794 1.2940562863932594 7.6671514706174255 14.495432360640836 0 0 0
132 0 2 0.5897 6.305175068805266 4.305766129204104 14.102092768730715 0 -1 1