LAMMPS data file via write_data, version 23 Jun 2022, timestep = 3821000

2268 atoms
2 atom types

0.9522160558391413 46.49848294414492 xlo xhi
0 20.047001 ylo yhi
0 20.857 zlo zhi

Masses

1 1.008
2 15.999

Atoms # full

1355 0 2 0.5897 4.36815983406672 3.1417260174811297 0.6099945624827149 0 0 0
1815 0 2 0.5897 1.9709730491293942 1.2216143215149629 1.7426899027139775 0 0 0
1878 0 2 0.5897 5.109611133246902 1.2073387116028915 1.3828899377613126 0 0 1
1877 0 2 0.5897 5.526617453750926 0.8399520836301336 2.947848999455902 0 0 1
1814 0 2 0.5897 3.148478934092558 0.5909955692603703 2.44295482882139 0 0 0
1813 0 1 -1.1794 2.1778367278634976 0.5739520683259791 2.415102469198485 0 0 0
1354 0 1 -1.1794 4.811044718947006 2.4309914303265767 0.15084232471332704 0 0 0
30 0 2 0.5897 1.4924125712765426 3.209916884293222 0.5146001746735374 0 0 1
1876 0 1 -1.1794 4.905433677707471 0.659135498633039 2.2110382204072443 0 0 1
28 0 1 -1.1794 1.4432919451940136 2.2163588831242294 0.30635905265635877 0 0 1
812 0 2 0.5897 10.847413170443453 1.9152684408190899 3.3421844536128353 1 0 1
811 0 1 -1.1794 10.831652620720604 2.7964260773950653 2.991467299649766 0 0 1
1320 0 2 0.5897 8.166791976036265 3.144763787160395 1.4876974497054556 0 0 0
515 0 2 0.5897 11.254433056176651 0.7573348660724988 0.5761663964283269 0 1 1
514 0 1 -1.1794 11.551602868404135 0.32802573001446794 1.4101076442774496 0 2 1
516 0 2 0.5897 10.783205627193624 0.1648041604263363 1.9312865406656614 0 2 1
813 0 2 0.5897 11.256532942690423 3.3589246825124754 3.6822462362583006 0 0 1
6 0 2 0.5897 11.95586172582046 3.5063374824226377 1.6481930438922834 0 0 2
360 0 2 0.5897 6.9798332545013295 3.7513880022824453 4.004473623999771 0 -1 0
1319 0 2 0.5897 9.13516711876064 3.3190711576234313 2.6586676672994525 0 -1 0
1318 0 1 -1.1794 8.249086673605035 3.6432648891890276 2.30062095773332 0 -1 0
299 0 2 0.5897 7.718433865357405 0.7217207067924509 4.137612428222478 0 0 1
1647 0 2 0.5897 8.004410656493178 0.9132507337892836 0.3078922884204843 0 2 0
513 0 2 0.5897 2.8017980363385577 4.078012331040022 3.19017888800578 0 0 0
511 0 1 -1.1794 2.5157353543087653 4.108623262272681 4.109700246903253 0 0 0
512 0 2 0.5897 1.5467573856442054 4.041551911951478 4.03465643825698 0 0 0
66 0 2 0.5897 4.911114561013159 4.1004365781987735 2.810256070331982 0 -1 0
64 0 1 -1.1794 4.2936035664959125 4.397228560122347 2.0868566407748075 0 -1 0
65 0 2 0.5897 4.572661645935188 5.328351288290573 2.1450006187822415 0 -1 0
2130 0 2 0.5897 3.611485151690073 7.264101502762645 2.700330624892329 0 0 1
2128 0 1 -1.1794 4.524980740995812 7.241896073774475 2.4325789463191727 0 0 1
586 0 1 -1.1794 1.8762055777699596 7.526795471975821 2.357872314332852 0 0 0
2129 0 2 0.5897 4.448733408365657 7.625382599455381 1.5165760196918836 0 0 1
816 0 2 0.5897 1.8211302323319365 5.443940013911625 1.4404252854202224 0 1 1
885 0 2 0.5897 5.901978161743194 6.0635582113754225 0.06273887089192616 0 1 1
814 0 1 -1.1794 1.5074395102303222 4.956762749601475 0.6518006241006077 0 1 1
588 0 2 0.5897 1.353831627459972 7.693690960723622 3.11310984520939 0 0 0
39 0 2 0.5897 7.731067636542626 6.506214342572548 2.147967581647162 0 1 0
38 0 2 0.5897 7.375085425583377 5.058418942968497 1.932639266202863 0 1 0
37 0 1 -1.1794 7.25756680206333 5.926173998306049 1.51669919722323 0 1 0
1303 0 1 -1.1794 10.837261707015985 6.348970582427052 1.7895904380333436 0 0 1
1304 0 2 0.5897 11.479007188747758 5.646028700500325 1.5887123075601666 0 0 1
1305 0 2 0.5897 11.267306139751733 6.882028151554881 2.472327717220879 0 0 1
1853 0 2 0.5897 7.829979372970244 7.626936689440538 3.8606051727116086 0 1 0
1852 0 1 -1.1794 8.554490790131778 6.993593197643673 3.6562382130622857 0 1 0
1854 0 2 0.5897 9.337768646702877 7.580983739592352 3.496422773876516 0 1 0
1331 0 2 0.5897 5.723567215770937 8.336990880930944 3.7131472673738473 0 0 0
587 0 2 0.5897 1.8819314632349393 8.24092649543039 1.7278776788649153 0 0 0
1617 0 2 0.5897 4.337135443830947 10.50875362658077 0.8972191225165128 0 -2 -1
1615 0 1 -1.1794 4.06248791609765 11.072683395201347 1.6386816023170019 0 -2 -1
507 0 2 0.5897 2.8177103832848447 10.728639217694058 2.9867688535152617 0 0 1
616 0 1 -1.1794 5.219572342685821 9.117024601333954 0.23418977125527632 0 1 0
1764 0 2 0.5897 5.205494981465793 10.832483510112464 3.38011660761472 1 0 0
617 0 2 0.5897 6.143613003877627 9.067607947302154 0.41033508286534415 0 1 0
505 0 1 -1.1794 2.3664027563257912 10.693604141961814 3.834065456273276 0 0 1
1616 0 2 0.5897 4.543846964516332 11.898594678947237 1.4890204909259184 0 -2 -1
1762 0 1 -1.1794 5.730559303584987 11.025122206193265 4.164873804712161 1 0 0
1763 0 2 0.5897 5.922450868852064 11.989986063085155 4.086922009056363 1 0 0
355 0 1 -1.1794 1.304190904899389 12.002145234292383 0.908772013615458 0 0 1
356 0 2 0.5897 1.454667791165881 11.037428470971888 0.9047992455153749 0 0 1
1348 0 1 -1.1794 1.5003528565692204 9.30941126129338 0.3127065631403338 0 0 0
1889 0 2 0.5897 11.05619766672343 8.756371243415849 1.2929310270317005 0 0 2
111 0 2 0.5897 8.778014950979715 9.174790628073799 1.2231222152308552 0 -1 -1
305 0 2 0.5897 9.41570311582683 10.180293335174236 3.286806884790911 0 2 0
1888 0 1 -1.1794 10.64258957437243 9.46294247101806 1.7851361777294936 0 0 2
1890 0 2 0.5897 10.898101964916027 10.209963816839847 1.1829289429489813 0 0 2
306 0 2 0.5897 8.59247687427108 11.149723402456999 4.076383918903394 0 2 0
110 0 2 0.5897 7.756646442832042 10.221844288131926 0.8969012026033981 0 -1 0
109 0 1 -1.1794 7.8503930859045665 9.295675773958974 1.06663200440743 0 -1 0
279 0 2 0.5897 11.216384024567837 8.92369190395173 3.972556120585038 0 1 -1
14 0 2 0.5897 4.970913390716696 14.58404731668734 1.4941310473888723 0 -1 0
13 0 1 -1.1794 4.641583200535793 13.875520116765067 2.1303178351356964 0 -1 0
15 0 2 0.5897 3.693656329001595 14.010770082913963 2.1731384021397817 0 -1 0
2245 0 1 -1.1794 1.7204165439020316 14.129054973097956 2.728309711476234 1 0 0
1031 0 2 0.5897 5.812553150952541 14.206145251916178 3.837618927992 0 -1 2
807 0 2 0.5897 1.2476239928782655 15.531040071265897 1.243266213341272 0 0 0
2247 0 2 0.5897 1.502485810008821 13.339166504967128 2.1561138074363027 1 0 0
223 0 1 -1.1794 5.346653408017835 15.857172669576352 0.2671018858079883 1 0 0
224 0 2 0.5897 6.273171947053129 16.035760440597482 0.26349976170541545 1 0 0
2246 0 2 0.5897 1.3100894144486195 14.108811009328198 3.563730092826173 1 -1 0
789 0 2 0.5897 11.175963532169762 12.102323694507009 0.2238594235521172 0 0 1
868 0 1 -1.1794 7.7872860114869 12.070061681801201 0.40725744734338115 0 -1 1
870 0 2 0.5897 6.901633451252726 12.294800517899311 0.09421574351652558 0 -1 1
869 0 2 0.5897 7.904493259933406 12.572878801767366 1.2544087705675107 0 -1 1
1804 0 1 -1.1794 8.738762213882271 12.808669085309921 3.045649405287456 0 -1 1
1806 0 2 0.5897 8.063703386463951 13.36100157691934 3.497966378967257 0 -1 1
1805 0 2 0.5897 9.521294223530148 13.424689610214873 2.980723403651927 0 -1 1
1654 0 1 -1.1794 11.184517167890345 14.771915426551358 2.989723865374595 0 -1 1
1832 0 2 0.5897 10.932467703788012 14.698152590600179 0.4261723796392855 0 0 0
1836 0 2 0.5897 8.610667722583646 15.450736984034739 0.3754273753746844 0 -1 0
1655 0 2 0.5897 11.51443280403653 15.649158300127507 2.8032032978487695 0 -1 1
1831 0 1 -1.1794 10.163597457415689 14.322220827819265 0.047991055028818994 0 0 0
1656 0 2 0.5897 11.313845677317259 14.67550727194355 3.963293621838544 0 -1 1
315 0 2 0.5897 12.044098211387993 13.164580229543384 2.4955310821393644 0 0 0
805 0 1 -1.1794 1.1610600926731949 16.061617582232937 0.39311072187907947 0 0 0
2096 0 2 0.5897 1.8274431959154747 19.110217762799216 1.460545601006806 0 -1 1
225 0 2 0.5897 5.028286732923245 16.701660924364624 0.6685572241163696 1 0 0
1758 0 2 0.5897 3.7286742066216902 17.98026311370127 2.4084635188985293 1 -1 1
1756 0 1 -1.1794 4.557356131966153 17.957660311912342 1.8745323878411957 1 -1 1
1757 0 2 0.5897 4.837334902936664 18.849463012575367 1.7684380673801665 1 -1 1
334 0 1 -1.1794 2.56160040150729 17.690068621691143 3.6182093340407575 0 0 1
2088 0 2 0.5897 5.599594709439929 17.001357792523542 3.252272162499867 0 -1 1
2097 0 2 0.5897 1.5233852556316096 17.77038294817353 0.707259445139191 0 -1 1
335 0 2 0.5897 1.5940862235723898 17.69516287507808 3.6449399037800236 0 0 1
2086 0 1 -1.1794 6.14620798247263 16.761755344947606 4.051870378189138 0 -1 1
2095 0 1 -1.1794 1.5475447544129888 18.72414865990786 0.6097324344588825 0 -1 1
791 0 2 0.5897 12.180557247049807 17.14942942077114 0.9276274730217331 0 -1 1
1834 0 1 -1.1794 8.043916421982063 16.187995993325572 0.5335573227509369 0 -1 0
1645 0 1 -1.1794 7.935085941053039 20.037669852763063 0.6845686694743995 0 1 0
1137 0 2 0.5897 8.628624707024244 19.92192720504138 2.356737053067771 0 -2 -1
1646 0 2 0.5897 7.23510387616649 19.600131586140296 0.15466365025022968 0 1 0
2127 0 2 0.5897 9.05652309226305 16.70529228994826 2.8107161171745507 0 -1 0
2125 0 1 -1.1794 8.737922329450784 17.040892427138758 3.701668843758146 0 -1 0
1136 0 2 0.5897 9.261983196601237 19.130528758249472 3.5495938841780013 0 -2 -1
1135 0 1 -1.1794 9.256392154661459 20.030388457202623 3.1337531042122366 0 -2 -1
792 0 2 0.5897 10.743959164308505 17.65044466066891 0.9910156586275577 0 -1 1
790 0 1 -1.1794 11.447127435868905 17.282198662392354 1.519197891119999 0 -1 1
1583 0 2 0.5897 9.18762311737312 19.148531864260256 0.18042911390803912 0 0 1
1835 0 2 0.5897 8.467868901107128 16.99048732597634 0.14853471696902018 0 -1 0
2087 0 2 0.5897 7.1389974600111445 16.829311932557747 3.8205319823657713 0 -1 1
557 0 2 0.5897 11.736427876701006 18.29952835478591 3.258053700502779 0 -1 -1
358 0 1 -1.1794 6.142029680946698 3.621460825380209 4.454569528602242 0 -1 0
1142 0 2 0.5897 3.40753278170846 2.4683307192177 4.793239295243691 0 1 1
1141 0 1 -1.1794 3.3920793825437046 1.949002707138886 5.626265910687088 0 1 1
509 0 2 0.5897 1.994691927692824 2.1941679100496465 6.832517614987207 0 -1 0
1143 0 2 0.5897 3.2808957363346964 1.0340303563550568 5.4363349338553775 0 1 1
525 0 2 0.5897 4.6407244831276815 2.1351231530691384 6.731529949226227 0 0 0
523 0 1 -1.1794 5.32568470591447 2.297904570158536 7.474833414502147 0 0 0
524 0 2 0.5897 4.981025873753008 3.163330771516222 7.778426786535637 0 0 0
510 0 2 0.5897 1.6420095241358612 3.4875497597375795 7.671379829717241 0 -1 0
508 0 1 -1.1794 1.3790056471378447 2.550399464676253 7.4961331889885505 0 -1 0
359 0 2 0.5897 6.340673001660246 3.7830332428385813 5.397916285818829 0 -1 0
298 0 1 -1.1794 6.840369495039751 0.9496457436030951 4.438208098199208 0 0 1
300 0 2 0.5897 6.841933930574267 1.9703561544276287 4.462210597158502 0 0 0
264 0 2 0.5897 7.053840461642968 1.6054493195826978 7.802635656576728 1 1 1
1636 0 1 -1.1794 8.866828979681905 2.6186875942273162 5.633457553251261 0 0 0
1637 0 2 0.5897 8.485037355363527 2.287187741354525 6.490313723440596 0 0 0
1638 0 2 0.5897 9.507574187542858 1.9778765640416842 5.389803179059617 0 0 0
262 0 1 -1.1794 7.961050135459466 1.5062452893085803 8.115528611804876 0 1 1
1335 0 2 0.5897 10.540777689010065 0.10886958604960631 5.565496581312164 0 0 2
1334 0 2 0.5897 11.652059713529129 1.216046347886017 5.647002397813385 0 0 2
1333 0 1 -1.1794 11.194370410263993 0.6291972201983664 5.0749099054455 0 0 2
263 0 2 0.5897 8.212121333916333 0.580025996914632 7.932344863323149 0 1 1
1061 0 2 0.5897 11.809843625572311 2.8103326560173993 7.145825631351651 0 0 0
1060 0 1 -1.1794 12.226019780664592 2.9030912214700693 6.286756966520683 0 0 0
1062 0 2 0.5897 11.761462324583905 3.6128530411966846 5.883795500110733 0 0 0
1270 0 1 -1.1794 1.482048562134695 5.243494937217762 7.930697705215374 0 0 0
2064 0 2 0.5897 3.3771467975118847 5.0980158742464745 5.380073998643098 0 0 1
2062 0 1 -1.1794 3.5804065145301833 5.597325547560014 6.175829182088219 0 0 1
2063 0 2 0.5897 3.683330763537174 6.542784236920354 5.958174485874421 0 0 1
1139 0 2 0.5897 5.620174354429965 5.330720616347376 6.470155480678527 0 0 0
1138 0 1 -1.1794 6.491600298104233 5.0192718422630005 6.812702046521436 0 0 0
1272 0 2 0.5897 2.223901480387526 5.624217563681162 7.449107215928538 0 0 0
266 0 2 0.5897 4.806533007577676 6.82204523992967 8.341160195734865 0 1 1
1140 0 2 0.5897 7.167849235342174 5.464853283050606 6.319024490858602 0 0 0
277 0 1 -1.1794 11.090928912215047 7.990994236115517 4.293010223174286 0 1 -1
1941 0 2 0.5897 10.93766083612232 5.567493399722928 4.598362881877808 0 0 1
1844 0 2 0.5897 8.97840891124424 4.550619393437602 5.684663253837479 0 0 0
1843 0 1 -1.1794 9.069846275869983 5.518261175938887 5.664402924610093 0 0 0
1845 0 2 0.5897 8.742065699514963 5.868462538579428 4.8362504789681 0 0 0
842 0 2 0.5897 9.853936740397652 6.50543331576151 6.845823934351275 0 0 0
841 0 1 -1.1794 10.704466278514666 6.986667195271447 7.032468651594183 0 0 0
278 0 2 0.5897 11.14339988642296 7.9091888120744525 5.229655992718092 0 1 -1
843 0 2 0.5897 10.41111315985465 7.552578450508772 7.743329535232987 0 0 0
1939 0 1 -1.1794 11.721822180375199 4.9965561931673275 4.523852654438179 0 0 1
1330 0 1 -1.1794 6.459587049602826 8.431695016361383 4.343243886977295 0 0 0
1332 0 2 0.5897 6.489923238099648 9.398080411329369 4.425508144107521 0 0 0
506 0 2 0.5897 2.7021980522951514 9.88280937105414 4.223970138461275 0 0 1
844 0 1 -1.1794 5.6433696806437625 8.41240256483723 7.069685896243213 0 0 0
846 0 2 0.5897 5.879783838621037 8.089767222966207 6.205043912971985 0 0 0
1034 0 2 0.5897 1.1982826303647665 10.077473317040276 8.01256511621561 0 0 1
246 0 2 0.5897 3.9779958683610497 9.04423740927729 6.152291788971841 1 1 0
244 0 1 -1.1794 3.265851396233371 8.575346066953145 5.706777838807897 1 0 0
245 0 2 0.5897 2.477948329784176 8.630940567988691 6.311350828329709 1 0 0
1033 0 1 -1.1794 1.3411744976150237 9.095578053521507 7.742496764461063 0 0 1
2023 0 1 -1.1794 4.893286723947762 11.85795906546406 7.095159799438615 0 0 0
2024 0 2 0.5897 5.7165418774102 11.864085827234085 6.571842911901015 0 0 0
103 0 1 -1.1794 1.0437886201059927 11.877237928116442 7.521930475773433 0 0 0
81 0 2 0.5897 4.645517523371095 10.380396434088803 8.314461880010903 0 0 0
845 0 2 0.5897 6.503188339268259 8.766941998062517 7.375528434606009 0 0 0
304 0 1 -1.1794 9.127059007899932 10.382043099554343 4.20683381096475 0 2 0
1599 0 2 0.5897 8.7396012078922 9.315839348375203 6.0641655030955715 0 1 1
1598 0 2 0.5897 8.673691514472269 8.993968868791233 7.6111076424731205 0 1 1
1777 0 1 -1.1794 11.198604583526503 10.357954983346296 6.235552470177116 0 0 -1
1597 0 1 -1.1794 8.280811743210986 9.48272139209416 6.89816316303729 0 1 1
50 0 2 0.5897 7.902827732073259 11.080007159318553 6.786116906522917 0 0 -1
1779 0 2 0.5897 10.800445301711717 9.920102414372831 6.988401210848255 0 0 -1
49 0 1 -1.1794 7.530840834835747 11.98096065942735 6.76168585214063 0 0 -1
1778 0 2 0.5897 10.485730959975898 10.561036244625337 5.56248183391285 0 0 -1
1030 0 1 -1.1794 6.5333654576823434 13.80282911535464 4.287836183304817 0 -1 2
638 0 2 0.5897 2.7360936910261255 12.317826413954615 4.679393642067886 0 -1 0
104 0 2 0.5897 1.5299195567013957 12.218242354808194 6.762870068593194 0 0 0
2025 0 2 0.5897 4.236891548829091 12.13293189990617 6.391267924382244 0 0 0
637 0 1 -1.1794 2.9350044036263463 12.789057846290286 5.52832131153757 0 -1 0
639 0 2 0.5897 2.987489299667723 13.796692401419461 5.319989301625646 0 -1 0
2119 0 1 -1.1794 3.444877656845884 15.354182716093092 5.10143386082088 0 0 -1
2121 0 2 0.5897 4.2164036111204855 15.63172129588637 5.603705135243756 0 0 -1
1106 0 2 0.5897 1.9069051316611432 15.386206425311475 6.431530139053935 0 0 0
769 0 1 -1.1794 5.251354598751964 16.03712476204576 6.912381523157244 0 0 0
770 0 2 0.5897 6.212159458572073 16.021185951299636 6.999002939625911 0 0 0
1107 0 2 0.5897 1.5198401932119627 15.213390462608189 7.958022326354175 0 0 0
2120 0 2 0.5897 3.195410860213586 16.00246154446468 4.4454996344525215 0 0 -1
1105 0 1 -1.1794 1.3937881961445302 15.707770256730612 7.145509630703576 0 0 0
269 0 2 0.5897 5.07567921505204 14.743297030032569 8.281138771216083 0 0 0
105 0 2 0.5897 1.3233365554573344 12.494719671329047 8.203095495702167 0 0 0
270 0 2 0.5897 4.672705580520489 13.224328710704365 8.188123239921099 0 0 0
1850 0 2 0.5897 12.160011209690817 13.378985470825286 5.878225850146536 0 0 0
1032 0 2 0.5897 6.719198824292729 14.378911410109094 5.052806327391596 0 0 2
51 0 2 0.5897 7.92191978282406 12.528117006250424 6.126003061672644 0 0 -1
833 0 2 0.5897 10.68074219146153 13.537782164148036 7.91262856192954 0 1 1
832 0 1 -1.1794 10.503661830660251 13.31604941635299 7.004232076527064 0 1 1
1051 0 1 -1.1794 7.990225718714062 14.994334264705298 6.380030613011315 0 -1 1
1053 0 2 0.5897 8.778275564406869 14.533761016177444 6.701252766606704 0 -1 1
834 0 2 0.5897 10.6408807739062 12.315434020514619 7.062823096907006 0 1 1
600 0 2 0.5897 10.775041197676785 15.869900032445758 6.342001371902284 0 -1 1
1052 0 2 0.5897 8.267262080181741 15.924344287967733 6.502401829653502 0 -1 1
1013 0 2 0.5897 7.731401746787767 12.876812417026855 8.24599790946066 1 -1 2
336 0 2 0.5897 2.7833036024237945 18.124650126460995 4.492045345661944 0 0 1
1514 0 2 0.5897 6.049315779052179 19.499401590868302 5.178288247863767 0 -1 -1
771 0 2 0.5897 5.046781679768409 16.899680651912593 7.240536491485707 0 0 0
1483 0 1 -1.1794 3.0637537933310734 19.339357650908084 5.632599241964219 1 0 0
1484 0 2 0.5897 2.593379359819525 19.225155255790824 6.447960914707088 1 0 0
1485 0 2 0.5897 3.9911429164748435 19.16802949778801 5.82245376118226 1 0 0
1513 0 1 -1.1794 5.636875837448404 18.792300610397916 5.694822939580328 0 -1 -1
1515 0 2 0.5897 5.849168990075735 17.989850505730008 5.156586725497381 0 -1 -1
2040 0 2 0.5897 1.495826653150308 17.736395970132325 7.864101479506464 0 1 0
2038 0 1 -1.1794 1.3659672719937204 18.66428563907007 7.703975632349407 0 1 0
556 0 1 -1.1794 11.945815063251953 18.36573854634435 4.211645584516584 0 -1 -1
2126 0 2 0.5897 9.135520473594402 16.412050733111293 4.307508620134802 0 -1 0
1519 0 1 -1.1794 9.5883233461701 19.464088272002353 6.72640192869841 0 0 0
1578 0 2 0.5897 6.92528864330528 18.215576937561924 6.951036378065314 0 0 0
598 0 1 -1.1794 10.575868013581266 16.113942516963856 5.473593275076105 0 -1 1
599 0 2 0.5897 10.891748394477633 16.978134030878593 5.248569821615558 0 -1 1
1521 0 2 0.5897 8.973704852432789 18.726643036339034 6.65174232518499 0 -1 0
1520 0 2 0.5897 10.325744807970802 19.304925599252076 7.297348225388254 0 0 0
1576 0 1 -1.1794 7.647151911859709 17.71697343838628 7.328700152253528 0 0 0
271 0 1 -1.1794 11.733539853682057 16.410699228526163 7.9723863781366315 0 0 -1
1577 0 2 0.5897 7.938356203145098 17.93733233676381 8.228439464105454 0 0 0
2182 0 1 -1.1794 11.999309469394523 19.23243164172874 8.085312064333694 0 0 0
273 0 2 0.5897 11.715126109153168 17.339725440505333 8.035829297493688 0 0 -1
558 0 2 0.5897 11.744885928876325 19.31527787136951 4.523719243451952 0 -1 -1
1280 0 2 0.5897 5.058974608530854 1.1925998593800895 8.796090998731893 1 1 -1
1018 0 1 -1.1794 2.193450963185466 0.6425447051751123 9.356411413089916 0 0 0
1020 0 2 0.5897 2.004920964848362 1.1697395190429782 8.566828671015081 0 0 0
330 0 2 0.5897 3.0216011207041995 2.41095019442922 11.71965864973171 0 0 1
1281 0 2 0.5897 3.820055256821794 0.6002491233142697 9.612396095958342 0 2 -1
818 0 2 0.5897 6.068627342664539 0.5528169682647676 10.635538659292132 0 1 0
1279 0 1 -1.1794 4.702006819704838 0.45188075652211834 9.273260501811146 0 2 -1
329 0 2 0.5897 2.8036584851078676 0.8753817583866537 12.042028603146319 0 0 1
377 0 2 0.5897 6.606762593091397 3.9229809521507146 12.099227504206977 0 0 -1
849 0 2 0.5897 3.3954480382322543 3.9864956802230664 10.405948829083172 0 1 0
71 0 2 0.5897 5.323173808827421 3.7909041277411855 10.129982505873944 0 0 0
328 0 1 -1.1794 3.35750744382173 1.6449519005014168 12.231622536747304 0 0 1
1019 0 2 0.5897 1.6992200575809226 1.0379720114713014 10.104097751283845 0 0 0
1781 0 2 0.5897 10.000562411219036 1.8819741449721412 8.484846017905499 0 -1 0
378 0 2 0.5897 6.783738195548312 2.4615571092807915 11.676824626590228 0 0 -1
817 0 1 -1.1794 6.765655575068699 0.4900418889541766 11.353945911032744 0 1 0
1780 0 1 -1.1794 10.815990084902642 2.321403645291052 8.667134039352447 0 -1 0
376 0 1 -1.1794 6.714930208619991 3.353613567387056 11.315304471581307 0 0 -1
1782 0 2 0.5897 10.550574568824526 3.239705186162378 8.946514374033608 0 -1 0
1301 0 2 0.5897 11.796262756329357 1.981772585356862 9.954221784781872 0 2 1
1643 0 2 0.5897 8.812122164065773 1.4055164683713806 11.249403952738355 0 1 0
1642 0 1 -1.1794 9.37524023176923 1.7058926350824273 11.950014343289673 0 1 0
876 0 2 0.5897 9.121631486725178 3.5762345782254767 12.01566684996729 0 -2 -1
1302 0 2 0.5897 12.005178367951606 2.0694782027391443 11.580468000796941 0 2 1
1385 0 2 0.5897 11.33799535234559 0.044744914784662346 11.024567355177389 0 1 -1
1300 0 1 -1.1794 12.193727720863745 1.579940975279234 10.758055694925169 0 2 1
848 0 2 0.5897 1.8276028463233729 4.103142802321243 10.96217256568843 0 1 0
847 0 1 -1.1794 2.784769743395892 4.134137992705908 11.207831143710813 0 1 0
70 0 1 -1.1794 4.813097283532715 4.11242110004715 9.357293899224302 0 0 0
1271 0 2 0.5897 1.5856334076000724 5.778255019841584 8.743124964454774 0 0 0
1071 0 2 0.5897 2.6414107566273977 7.329501265092638 10.051828402718323 0 0 0
265 0 1 -1.1794 4.480074080549528 6.771532551148845 9.264548801742315 0 1 1
267 0 2 0.5897 5.16002575495049 7.146848297903062 9.891866405133792 0 1 1
72 0 2 0.5897 4.711644028961764 5.082296399797952 9.338324963627198 0 0 0
1848 0 2 0.5897 3.0468557069609488 5.301826061062898 12.206498025958869 0 1 0
1613 0 2 0.5897 6.535046633715449 7.3292833928161025 11.927826831223861 0 0 -1
1069 0 1 -1.1794 1.7052992111685032 7.3298064717602385 9.823928304152084 0 0 0
1612 0 1 -1.1794 6.246334498970195 7.801579068866915 11.124180136933377 0 0 -1
1070 0 2 0.5897 1.164751277164941 7.363267106909108 10.643235222217045 0 0 0
549 0 2 0.5897 11.904355425479002 5.019495159005202 10.995282497064087 0 0 1
1743 0 2 0.5897 7.327187483763292 4.418545676596273 8.626180593888906 1 0 0
1742 0 2 0.5897 7.70286509512009 4.124586123727723 10.155007047062783 1 0 0
1600 0 1 -1.1794 10.566268916151461 5.002349997685072 9.355426203827543 0 1 0
1602 0 2 0.5897 9.59712822624924 4.832206024685596 9.333611292168467 0 1 0
1741 0 1 -1.1794 7.963947262782858 4.60630404741931 9.325139722046842 1 0 0
1601 0 2 0.5897 10.684345258672092 5.653965254332896 8.618042747183575 0 1 0
1614 0 2 0.5897 6.966882893704589 7.8727390702421305 10.508136152560429 0 0 -1
758 0 2 0.5897 7.854009377025759 6.635237829276889 8.959388556085504 0 0 -1
1830 0 2 0.5897 10.060415830816346 6.948521650704765 11.968739045561636 0 1 0
757 0 1 -1.1794 8.211039840584649 7.546771580710934 8.902744874189905 0 0 -1
759 0 2 0.5897 8.758573729143368 7.6564187581203145 9.702584890279292 0 0 -1
1828 0 1 -1.1794 9.628991191364914 7.5818057758745185 11.367140781637314 0 1 0
874 0 1 -1.1794 9.113566480257287 4.545755557760888 12.263408038450025 0 -2 -1
1630 0 1 -1.1794 12.24658456659381 7.439068255360853 9.29113313861069 0 0 1
1035 0 2 0.5897 1.4984128020751721 8.541677080653205 8.534339176346563 0 0 1
80 0 2 0.5897 4.110329629712178 8.97762834056058 8.886655492983737 0 0 0
1772 0 2 0.5897 2.7396430423344493 10.452629211128071 9.830606342159065 0 -1 0
1771 0 1 -1.1794 2.2883919152609433 10.777008459250931 10.644322924773984 0 -1 0
79 0 1 -1.1794 4.15986625518425 9.918446045973669 8.994747234864608 0 0 0
2085 0 2 0.5897 2.7239077296803753 9.298705309548746 11.933927564416054 0 1 -1
132 0 2 0.5897 4.957185359158964 10.3557091731661 10.72890126301623 0 -1 1
1773 0 2 0.5897 1.3095062540600797 10.789531848475038 10.700538005100464 0 -1 0
131 0 2 0.5897 5.80317113871112 9.509983810582625 11.446742551667725 0 -1 1
130 0 1 -1.1794 5.797244597994902 10.41254103054117 11.197664659121324 0 -1 1
1041 0 2 0.5897 3.0183106279045426 11.924438297779883 11.804417001799846 1 -1 -1
1363 0 1 -1.1794 10.677940595840091 9.525209345909865 8.678565087999553 0 -2 -1
1364 0 2 0.5897 10.157720867237243 10.054806161905281 9.249308982001542 0 -2 -1
777 0 2 0.5897 7.525949616226449 10.485194394703782 10.625196911556849 0 0 -1
775 0 1 -1.1794 8.339377438586975 10.704373740995965 10.268004826036885 0 0 -1
776 0 2 0.5897 8.231404327622634 11.658653691227935 10.107374144276216 0 0 -1
1550 0 2 0.5897 10.728634113700686 9.193933972980874 11.181534441348239 0 -1 2
1365 0 2 0.5897 11.478129601270807 9.137017609710753 9.082794323069823 0 -2 -1
1551 0 2 0.5897 10.254789227972006 10.748770245904897 11.297912327075764 0 -1 1
1549 0 1 -1.1794 10.933782912706723 10.141574486448407 11.544558045801496 0 -1 2
1829 0 2 0.5897 9.18019071488648 8.20610157576502 12.008206649217964 0 1 0
1995 0 2 0.5897 1.4666915915400465 13.946793688431741 9.930718481664742 1 0 0
268 0 1 -1.1794 4.641038603350655 14.047545394573419 8.733505293937027 0 0 0
1993 0 1 -1.1794 1.9583354340748584 13.84385784010567 9.080378865445638 1 0 0
1058 0 2 0.5897 3.212922816391042 15.5829690507799 11.665934028795974 0 0 -1
346 0 1 -1.1794 6.2038820298629185 14.08629035467588 10.918384172742128 0 0 2
348 0 2 0.5897 6.184790258189005 13.526988398807871 11.682461292881408 0 0 1
347 0 2 0.5897 5.480760710415956 13.818976223994971 10.214000717594214 0 0 1
1994 0 2 0.5897 2.918415269452292 13.752058259072797 9.269907862129253 1 0 0
1057 0 1 -1.1794 2.919300767033693 15.17001014390802 12.488754617371368 0 0 -1
1517 0 2 0.5897 6.677062050191667 15.80521621736895 10.737182982389863 0 0 -1
353 0 2 0.5897 10.96181450802974 13.553829169740185 10.302408745838692 0 0 1
352 0 1 -1.1794 11.54698739055132 13.896089607746088 9.644612018965828 0 0 1
1012 0 1 -1.1794 8.263711266062256 13.237815840008182 8.998692520049278 0 -1 2
1014 0 2 0.5897 7.659042804284181 13.63409537055595 9.588971851015446 0 -1 2
1022 0 2 0.5897 8.96536976642067 15.146180509909959 8.893921433602644 0 0 0
52 0 1 -1.1794 10.235987262164096 15.624021929191079 12.397381009614735 0 0 0
1021 0 1 -1.1794 9.340581062279083 15.91959185446886 9.358518571235962 0 0 0
1023 0 2 0.5897 9.618791929173272 15.50615806221321 10.182300551871394 0 0 0
53 0 2 0.5897 10.664934679251578 14.740370234919938 12.25232223147828 0 0 0
605 0 2 0.5897 11.44047438766313 12.819079946227639 12.096451048964825 0 -1 0
604 0 1 -1.1794 10.482444131940104 13.048334946202328 11.949576543078557 0 -1 0
354 0 2 0.5897 12.26560359307127 13.275153542285587 9.553114111730185 0 0 1
2039 0 2 0.5897 1.5629013419441127 19.121531783638787 8.562915150532302 0 1 0
819 0 2 0.5897 6.405000260000462 19.796395080976385 11.808925751830397 0 0 0
2111 0 2 0.5897 1.805421226178955 17.159165348339805 9.917416366785456 0 0 0
1823 0 2 0.5897 4.769130896985681 18.81672854717683 9.052335140414415 0 -2 1
1822 0 1 -1.1794 4.784842508576275 17.859913067712295 8.820488690722113 0 -2 1
2110 0 1 -1.1794 2.739810164310468 16.912598970249725 10.178741229228695 0 0 0
2112 0 2 0.5897 3.4151264857213937 17.273629998382752 9.587615472123291 0 0 0
1824 0 2 0.5897 5.4799388023085 17.48262165109405 9.35462656269025 0 -2 1
140 0 2 0.5897 2.5780245880739665 18.411041867983208 11.419722031382394 0 -1 0
326 0 2 0.5897 5.7451726426101635 17.93057494075642 12.135962340939225 0 -1 0
139 0 1 -1.1794 2.8574323812513276 19.095153156982047 12.066487846832487 0 -1 0
2184 0 2 0.5897 12.187255511532813 19.832699173690695 8.833515642627042 0 0 0
1516 0 1 -1.1794 6.652290422079499 16.767045398105616 10.627519808848092 0 0 -1
1229 0 2 0.5897 8.018949480712486 19.47563629098635 10.224056339008513 1 0 0
54 0 2 0.5897 10.913770455416568 16.288043534725357 12.506492129634172 0 0 0
272 0 2 0.5897 11.091928012790593 16.081368152088015 8.580359101037123 0 0 -1
1228 0 1 -1.1794 8.482782675392453 18.685237483013886 9.834333326954544 1 0 0
1230 0 2 0.5897 9.412079643977403 18.846813234981262 10.080895087379188 1 0 0
1518 0 2 0.5897 7.58888488684796 17.14636436977436 10.519654094645942 0 0 0
1384 0 1 -1.1794 11.00011075514129 19.16821726832386 10.986436481662293 0 0 -1
1386 0 2 0.5897 10.581005074215112 18.992841865293162 11.813068568943471 0 0 -1
1605 0 2 0.5897 12.240518532045456 17.880743895077376 10.983324508667188 0 0 0
1113 0 2 0.5897 1.5259617160777377 3.5338781457119692 14.630465558194183 0 0 -1
1112 0 2 0.5897 1.9078445758373062 2.3265493078360144 13.782817801629182 0 0 -1
612 0 2 0.5897 4.504787724782744 2.0456779784784174 13.335310278917397 0 0 -1
610 0 1 -1.1794 5.1905390794565855 1.999647145382087 14.03907490030933 0 0 -1
611 0 2 0.5897 5.015454756563896 1.2538825165436547 14.641234157246513 0 0 -1
48 0 2 0.5897 1.8602279739436307 1.317796884865132 15.876739018042159 0 1 -1
47 0 2 0.5897 3.102551466592036 0.7063198380210726 16.42808412728556 0 1 -1
2101 0 1 -1.1794 4.848318441881725 0.2847627219208296 16.235587371111063 0 -1 0
46 0 1 -1.1794 2.15393598580592 0.4788233115644788 16.27970181374838 0 1 -1
551 0 2 0.5897 4.47248417918029 3.860578190505153 14.674222676170482 0 0 -1
1111 0 1 -1.1794 1.3694737887184973 2.5815747169276997 14.533048070463149 0 0 -1
552 0 2 0.5897 5.429348012748103 3.9359483736893566 15.890326077589657 0 -1 -1
1644 0 2 0.5897 8.8392471022397 1.6239071782829246 12.727565193432335 0 1 0
2090 0 2 0.5897 6.8686264185135855 1.9925669806151023 13.97437828242004 0 0 0
1352 0 2 0.5897 12.089059844952118 3.8231124554306244 13.229620158664495 0 0 0
1351 0 1 -1.1794 11.878256976249968 2.862354484737788 13.221765465103825 0 0 0
1353 0 2 0.5897 10.943816676923841 2.7663152220156246 13.083913921797913 0 0 0
1379 0 2 0.5897 9.413613783589218 1.7010084426941652 15.40115779609962 0 1 -1
2089 0 1 -1.1794 7.768602216180426 1.7306608350486008 14.317995687257001 0 0 0
1378 0 1 -1.1794 10.201914704082485 1.6624792599091487 15.938229928733989 0 1 -1
2030 0 2 0.5897 11.254671032059024 0.5487762602520483 15.42009724474591 0 0 -1
2091 0 2 0.5897 7.645538905172035 0.7900681289733945 14.423614138516687 0 0 0
1242 0 2 0.5897 10.45489116771904 3.3933217497131594 16.52126921248204 1 1 0
1581 0 2 0.5897 7.810220118779629 3.728933306424509 15.336330680195562 0 1 -1