LAMMPS data file via write_data, version 23 Jun 2022, timestep = 39374500

2268 atoms
2 atom types

0.7456512531112836 46.705047746856195 xlo xhi
0 20.047001 ylo yhi
0 20.857 zlo zhi

Masses

1 1.008
2 15.999

Atoms # full

1530 0 2 0.5897 2.721934755602456 1.388399488759522 2.0357497578660233 0 0 0
1528 0 1 -1.1794 2.9212057592960514 1.9287425760534778 2.833745730336322 0 0 0
515 0 2 0.5897 4.794956564624142 2.5818328818648544 2.761285793065596 0 1 1
514 0 1 -1.1794 5.624258994053832 2.9040724145895043 2.436985424045779 0 2 1
1529 0 2 0.5897 2.219490077230864 1.782148629003468 3.5357672699130833 0 0 0
1362 0 2 0.5897 5.546543501065541 1.4558421093546388 1.4103597801915886 0 -1 1
1093 0 1 -1.1794 2.2538981767836956 0.5253874146936677 0.35588118723505907 0 0 1
1360 0 1 -1.1794 5.916925813251273 0.860933618543182 0.7435639129791842 0 -1 1
852 0 2 0.5897 2.781030435745482 4.204734235707794 2.2983228934798277 0 0 1
516 0 2 0.5897 6.24010187214679 2.4610930347974387 3.0576999989068177 0 2 1
1400 0 2 0.5897 6.120657741405307 4.429505552837933 1.5134434171659186 0 1 1
1275 0 2 0.5897 9.22776183215572 2.153968777474922 1.3453202724512572 0 0 1
1273 0 1 -1.1794 9.295007322061421 2.5513885211300726 2.2294121556286894 0 0 1
1274 0 2 0.5897 9.227607348204927 3.4925880498642288 2.002479112359829 0 0 1
903 0 2 0.5897 7.782713684644442 1.205711180717144 0.07977042826100236 0 1 -1
901 0 1 -1.1794 8.741025496683326 1.195686964620223 20.818364427837402 0 1 -2
386 0 2 0.5897 11.109673861149423 2.8710334195533305 2.4908826175423013 0 3 -1
2157 0 2 0.5897 11.601808411179102 0.8631202664291066 2.3791640788624475 0 -2 0
80 0 2 0.5897 11.84608169261908 1.27581340585193 19.76539403146159 0 2 -2
1097 0 2 0.5897 7.460471151724352 0.321598052538714 4.131255782535284 0 1 0
1671 0 2 0.5897 7.4940140884687745 4.48729511594475 20.564622353312735 0 -2 1
850 0 1 -1.1794 2.4602707327616615 5.135638772604424 2.3405742181303943 0 -1 1
851 0 2 0.5897 2.760509243224963 5.484472163024128 1.5002445567679967 0 -1 1
885 0 2 0.5897 3.869721322855438 5.768058562193088 3.746029111421214 0 1 1
1349 0 2 0.5897 1.2465781366147675 5.546771292861006 3.4525566742354337 0 0 0
2122 0 1 -1.1794 2.72518595576841 6.910803614944746 0.34819189900946007 0 -1 0
2124 0 2 0.5897 1.7544089078020317 6.794229015079403 0.3851421967857163 0 -1 0
1405 0 1 -1.1794 6.327509652116166 7.448836021301668 0.5322724024419437 0 1 0
1401 0 2 0.5897 6.23693607898362 5.827405702607748 0.7542480784555332 0 1 1
883 0 1 -1.1794 4.576134405681978 5.730556334134546 4.403641474869868 0 1 1
1407 0 2 0.5897 5.708972672292373 7.647909710752432 20.642170150595412 0 1 -1
1399 0 1 -1.1794 6.117046212501749 4.865038868787817 0.6576953945470788 0 1 1
1347 0 2 0.5897 1.002837048983054 3.60782254001435 20.848971747956288 0 0 -1
1406 0 2 0.5897 6.198149783505251 8.084568990154251 1.2650455110023202 0 1 0
2123 0 2 0.5897 3.044760601494022 7.2751668334589255 20.376211724431528 0 -1 -1
1379 0 2 0.5897 11.068799078573738 4.507023235589941 0.4335484708536399 0 -1 -1
760 0 1 -1.1794 9.41044272730377 5.27450675424293 2.7190565390423824 0 -2 3
762 0 2 0.5897 9.227901551539336 6.0782614374222135 2.163059129408715 0 -2 3
761 0 2 0.5897 8.66296751902815 5.524890501936483 3.3205264918361275 0 -2 3
390 0 2 0.5897 10.79912715385309 5.408957172838771 3.680648563837262 0 -4 -2
622 0 1 -1.1794 9.018861766986033 7.097317756697183 0.8338916884275014 0 0 0
623 0 2 0.5897 8.090564156221971 7.378198645999781 0.5059141630348697 0 0 0
1378 0 1 -1.1794 10.97136496085954 3.9905426534713717 20.469923186654427 0 -1 -2
385 0 1 -1.1794 12.021554046639267 2.6931602913206896 2.8690387724612645 0 3 -1
1253 0 2 0.5897 2.677354386037478 8.035333310508626 1.9547308379098234 1 0 1
1254 0 2 0.5897 2.2461684205870736 8.752417581185945 3.327489596701972 1 0 1
1252 0 1 -1.1794 2.852815028857942 8.767614654305763 2.567409411628148 1 0 1
76 0 1 -1.1794 5.627327013898217 9.049334527044591 2.5559622077249644 0 1 0
78 0 2 0.5897 4.691667930541374 8.937593897077466 2.582830491674203 0 1 0
2100 0 2 0.5897 6.002020341974173 10.464371344194278 1.4997739292760883 0 -1 0
1767 0 2 0.5897 2.6098284326766694 10.642555264263262 2.0486035227989237 0 -1 0
2098 0 1 -1.1794 6.089417594407908 11.069863939297596 0.7930054843438108 0 -1 0
1765 0 1 -1.1794 2.613810221567433 11.623203190535335 2.269982324462399 0 -1 0
77 0 2 0.5897 6.052243550143784 8.896340872130676 3.391671999964822 0 1 0
2099 0 2 0.5897 6.078137040653462 11.974923740049977 1.0610596898885836 0 -1 0
810 0 2 0.5897 9.135933271810272 8.424387794004954 1.9316635603470358 0 0 -1
1053 0 2 0.5897 11.180704060379318 8.277887071403596 2.6616658705212792 0 0 1
808 0 1 -1.1794 9.332836204680659 9.043971633146613 2.6362639374223575 0 0 -1
809 0 2 0.5897 8.592019958277877 8.939312084193752 3.291145262443135 0 0 -1
429 0 2 0.5897 9.423207479763084 10.954074180525712 2.4263400710081022 0 -2 1
427 0 1 -1.1794 9.629682711477534 11.8526617029853 2.758812143015619 0 -2 1
1051 0 1 -1.1794 12.126238819973526 8.123186852792301 2.731792097659068 0 0 1
1766 0 2 0.5897 3.4330594093656694 11.733723366177195 2.7351427411556055 0 -1 0
806 0 2 0.5897 1.4705401211394342 12.28296199477302 3.640715887258141 0 0 0
1892 0 2 0.5897 2.144909668504811 12.813613330613158 1.1328583648631971 0 0 1
2268 0 2 0.5897 2.667573154377458 14.91801347441922 1.6282121302471333 1 0 0
2267 0 2 0.5897 2.3686796361319225 15.270601765696684 3.063102407279292 1 0 0
372 0 2 0.5897 4.701976818280607 15.53439319896239 2.6035597645157673 0 0 2
371 0 2 0.5897 6.085618837407373 15.617502141907176 3.2391021670976445 0 0 2
1891 0 1 -1.1794 2.197276246660241 13.364055013252877 0.37845015351880273 0 0 1
2031 0 2 0.5897 6.182291402601571 14.309258794992168 1.2238308419901989 0 -1 0
108 0 2 0.5897 5.8896596110527675 12.210152341917922 3.899268550123783 0 0 0
106 0 1 -1.1794 4.925905070612532 12.260363666834264 3.873633499028703 0 0 0
2029 0 1 -1.1794 6.483816622894789 13.793336581681174 0.4682197819577141 0 -1 0
805 0 1 -1.1794 0.902853878497717 12.571452303314674 4.374695539410403 0 0 0
107 0 2 0.5897 4.8049344997932755 13.093068697965423 4.384787457845463 0 0 0
1031 0 2 0.5897 8.33509368434932 12.508303156140215 3.9252553631250415 0 -1 2
428 0 2 0.5897 9.712931535576457 12.414589937525053 1.9877469221625585 0 -2 1
1436 0 2 0.5897 9.376480645282298 15.094556215365456 1.9332902838372146 0 0 -2
882 0 2 0.5897 8.035730652205068 15.669598250045606 4.0745691688487184 0 -1 1
1435 0 1 -1.1794 9.492884856214197 15.576773748818189 2.784403120980156 0 0 -2
1286 0 2 0.5897 11.417478447051367 14.957958429287242 2.2786283224135033 0 -1 3
163 0 1 -1.1794 9.29443434218525 13.712993276823267 0.559288848353437 0 0 0
164 0 2 0.5897 8.347213208189043 13.675555662712595 0.34546118840748813 0 0 0
1914 0 2 0.5897 12.008624304217589 5.047381713955483 9.808189096347967 0 -4 1
370 0 1 -1.1794 5.692466111008732 15.510648539826622 2.3813974158414357 0 0 2
2266 0 1 -1.1794 3.0321732473885725 15.408773839318599 2.3409634752300787 1 0 0
858 0 2 0.5897 2.5025275843670736 18.984683648533235 1.1078798008844064 0 0 0
856 0 1 -1.1794 2.8253154646604988 18.47290927346859 1.8115663309915997 0 0 0
857 0 2 0.5897 2.7997967782171327 17.52379828365328 1.5815524784009112 0 0 0
63 0 2 0.5897 4.082676812632181 18.934186961867116 3.0372873562581506 0 0 0
29 0 2 0.5897 1.4363659075389992 18.814578403110374 3.10407445246066 0 -1 1
333 0 2 0.5897 6.18956863898582 17.27354546616008 1.9573252986130971 0 0 2
1361 0 2 0.5897 5.88459677594549 19.9986962161922 0.9554012430133844 0 -2 1
331 0 1 -1.1794 6.2589828004393375 18.024649627950627 1.2832816901260218 0 0 2
61 0 1 -1.1794 4.471529925231029 19.109670024192067 3.956752873306769 0 0 0
1098 0 2 0.5897 6.490553140385199 19.17417472443074 4.122975936728864 0 0 0
28 0 1 -1.1794 0.9141552115650549 19.257062344700973 3.8630725373141006 0 -1 1
1437 0 2 0.5897 9.513219068458298 16.563013259511017 2.5345491930080706 0 0 -2
1169 0 2 0.5897 9.674341077190629 19.019606025648446 2.2029713846351053 0 -2 1
1168 0 1 -1.1794 9.046653716512854 18.261439036169158 2.215217789916509 0 -2 1
332 0 2 0.5897 7.178563391423892 18.03224086225461 1.0165592195126067 0 0 2
1170 0 2 0.5897 8.404053446784502 18.52006981569543 2.904258461253047 0 -2 1
1427 0 2 0.5897 12.057009301528693 18.780928026357618 3.605401293572632 0 1 -1
2156 0 2 0.5897 11.575425477082778 19.845930561573816 1.3120941024959514 0 -3 0
2155 0 1 -1.1794 11.41170064108492 19.97195152083121 2.2337215453913144 0 -3 0
1096 0 1 -1.1794 7.435229864398202 19.42663557620625 4.178954259525578 0 0 0
277 0 1 -1.1794 12.09540784526816 2.5234088129429377 12.006880325243541 0 4 -2
512 0 2 0.5897 1.6647376990038707 0.7807902179599502 7.3527416560060574 0 0 0
65 0 2 0.5897 4.523672620101223 2.301094436830398 5.521861344599661 0 -1 0
64 0 1 -1.1794 4.252795847615095 1.399875544604707 5.54661387569156 0 -1 0
513 0 2 0.5897 3.1675714471698706 0.6886097107102258 6.774512967595865 0 0 0
1365 0 2 0.5897 5.693913165720031 0.7489404241520821 6.701966605234328 0 -2 -1
1363 0 1 -1.1794 6.152329543688865 0.38892671524178757 7.494682523288952 0 -2 -1
586 0 1 -1.1794 1.5955041727852217 4.00296727288961 6.367898020091187 0 0 0
511 0 1 -1.1794 2.588257825255475 0.5177004069528681 7.5490718864045006 0 0 0
66 0 2 0.5897 4.2878389880628305 1.0092383344312248 4.656451102401749 0 -1 0
2128 0 1 -1.1794 4.2642516939085855 3.9848478089823742 6.390978972018073 0 0 1
2130 0 2 0.5897 3.366905824140795 4.093676092678076 6.750798415257849 0 0 1
1364 0 2 0.5897 5.997836869723316 1.065989417069423 8.203556743872861 0 -2 -1
816 0 2 0.5897 0.9192115743560629 2.754711137584189 5.158295961827764 0 1 1
1397 0 2 0.5897 8.516677896844886 2.1874790390326573 3.677841069508141 0 1 1
711 0 2 0.5897 11.56054607571373 1.4626700205152465 4.39429737816155 0 0 -3
1396 0 1 -1.1794 7.726809319317609 2.154998684729465 4.256091661913342 0 1 1
1398 0 2 0.5897 7.884070704317706 2.8224570473426986 4.9833577414730055 0 1 1
149 0 2 0.5897 11.063106058682319 2.7842263438150225 6.095689779685955 0 -2 -1
74 0 2 0.5897 9.042546568939933 0.999447746629917 6.076891952583103 0 -1 0
709 0 1 -1.1794 10.923157156546193 1.1308530535936523 5.015521266831275 0 0 -3
75 0 2 0.5897 7.7960687457840105 0.6995995639861362 6.966368324991455 0 -1 0
73 0 1 -1.1794 8.780690726386899 0.7194872925588767 6.993029455804219 0 -1 0
710 0 2 0.5897 11.321488049430553 0.27876339255572546 5.348994820437127 0 0 -3
148 0 1 -1.1794 10.864759137468981 3.6784939735756192 6.289889431431097 0 -2 -1
356 0 2 0.5897 0.7859365060885869 7.444091453679527 4.620853033747292 0 0 1
1348 0 1 -1.1794 0.7967232538749307 5.641070892741581 4.312032586663233 0 0 0
1330 0 1 -1.1794 6.422413175670802 4.423963783699459 7.846902767028156 0 0 0
2129 0 2 0.5897 4.939385594750604 4.249162420658516 7.063371677203656 0 0 1
587 0 2 0.5897 1.3001470973397646 4.746925792393221 5.826057248759471 0 0 0
884 0 2 0.5897 4.402570665374836 5.015698334088519 5.018029119813562 0 1 1
507 0 2 0.5897 2.729058467426789 7.339259530542646 6.7016677291494435 0 0 1
1617 0 2 0.5897 4.155424935079656 7.294039479001386 4.970105552866648 0 -2 -1
505 0 1 -1.1794 2.13177413554644 7.1353281836037326 7.47575739870017 0 0 1
6 0 2 0.5897 5.7786408278168535 7.242890744125979 6.496777893529988 0 0 2
506 0 2 0.5897 2.4982521625100134 6.357259115116288 7.949850891588163 0 0 1
1331 0 2 0.5897 6.329027758158449 5.330734370962196 8.056100615372165 0 0 0
4 0 1 -1.1794 6.282713370398422 7.342605991707562 7.282629191331979 0 0 2
1638 0 2 0.5897 6.402528505114988 5.966183774026602 4.313189399726463 0 -1 -1
388 0 1 -1.1794 11.503094087657821 5.5014920440160235 4.314082069743293 0 -4 -2
1367 0 2 0.5897 7.686495065221378 4.112764711167369 6.738571576192995 0 0 -1
1366 0 1 -1.1794 8.190550271444582 4.213759959866341 5.9275818820079325 0 0 -1
1368 0 2 0.5897 9.098426348847626 4.1405462159880955 6.13399713174977 0 0 -1
150 0 2 0.5897 11.257725580173883 4.187028316984141 5.524967751005802 0 -2 -1
1636 0 1 -1.1794 7.324918293174777 6.180069550278718 4.517335996959255 0 -1 -1
444 0 2 0.5897 11.331831875311671 7.173252406627283 5.322281862676334 0 -3 0
1637 0 2 0.5897 7.675152653176523 5.4313107449437945 5.092541952373295 0 -1 -1
5 0 2 0.5897 7.187968903397035 7.513906977085764 7.075875494090032 0 0 2
442 0 1 -1.1794 10.990793067766917 7.957694655517533 5.843440348628 0 -3 0
1063 0 1 -1.1794 9.063494258786307 7.335720560657106 7.437349185630105 0 0 1
1064 0 2 0.5897 9.785454285604862 7.534636684708116 6.8456108983260675 0 0 1
1074 0 2 0.5897 7.61690568222499 7.798733033099183 4.584861925927269 0 2 1
355 0 1 -1.1794 0.9615304156022377 8.346965790695059 4.431465715743272 0 0 1
1615 0 1 -1.1794 3.9279314749413143 8.019491213209452 5.629372180683502 0 -2 -1
1616 0 2 0.5897 4.2742533145152475 8.87806278795683 5.383547959133034 0 -2 -1
2245 0 1 -1.1794 1.493753463387829 10.4182519157638 6.289634010825812 1 0 0
13 0 1 -1.1794 4.369200421637946 10.723332753758049 6.124238657720863 0 -1 0
15 0 2 0.5897 5.0396015691404585 10.802230529858772 6.751010490843445 0 -1 0
2247 0 2 0.5897 2.4119161655310437 10.616617030322475 6.467524735561255 1 0 0
14 0 2 0.5897 4.756216263489116 11.186881213287243 5.364388606844197 0 -1 0
807 0 2 0.5897 1.3210132020021224 12.15671710379714 5.170986483715969 0 0 0
357 0 2 0.5897 1.1273033254758924 8.839972691742595 5.276902325702963 0 0 1
1354 0 1 -1.1794 6.365619105491404 11.273870811978842 7.859688076175832 0 -1 0
2246 0 2 0.5897 0.909810831121291 10.533583149991212 7.05046354454566 1 -1 0
398 0 2 0.5897 10.851795194047645 11.089314696924852 4.0622718350345455 0 -1 -2
1065 0 2 0.5897 9.014620792222656 8.132899236625176 8.024379399866113 0 0 1
443 0 2 0.5897 11.263330747164245 8.770987452428173 5.358924655818432 0 -3 0
399 0 2 0.5897 12.072751120487343 11.176972791501798 5.04228226771982 0 -1 -1
1072 0 1 -1.1794 7.410464343366667 8.7546932507243 4.451057891824157 0 2 1
1073 0 2 0.5897 7.758763154860364 9.324634639731281 5.198463773408542 0 2 1
421 0 1 -1.1794 8.435494063641608 10.567853868167127 5.967691697206612 0 0 0
423 0 2 0.5897 9.371130554861592 10.553400716264939 5.6731414781872544 0 0 0
422 0 2 0.5897 8.053089284902416 11.337146527300847 5.604435063578656 0 0 0
1356 0 2 0.5897 7.307090136642069 10.975835709464748 7.57417566406549 0 -1 0
397 0 1 -1.1794 11.157911758645183 10.810532661288656 4.93721232734866 0 -1 -2
2095 0 1 -1.1794 0.9949012548964683 15.46349283130445 4.325765712709858 0 -1 1
335 0 2 0.5897 1.0436755583606139 14.012779574907123 7.545874756630029 0 0 1
1758 0 2 0.5897 4.89099585086813 14.410671838651394 6.1427733322589075 1 -1 1
1757 0 2 0.5897 3.4209147374151403 14.150146358690247 5.888746018102435 1 -1 1
1756 0 1 -1.1794 4.282850077632722 14.370666443330867 5.440911843995255 1 -1 1
334 0 1 -1.1794 1.9668153029442381 14.11807905539101 7.2668188408481065 0 0 1
1269 0 2 0.5897 5.929004391302033 13.58407627405575 7.582835906146242 0 -2 1
1267 0 1 -1.1794 5.997416756609594 14.543461129820063 7.323902604858212 0 -2 1
336 0 2 0.5897 2.3774857801592875 14.783072643756787 7.84922040869738 0 0 1
2097 0 2 0.5897 0.9019415740713685 14.588890634003347 4.751263704388571 0 -1 1
2096 0 2 0.5897 1.0298088752458332 16.09914905432024 5.070080176891184 0 -1 1
1268 0 2 0.5897 5.779488030382743 15.054126221929913 8.103278777147812 0 -2 1
1030 0 1 -1.1794 7.500821600382736 12.708402997248795 4.425512271458801 0 -1 2
1032 0 2 0.5897 7.378891632796329 13.696733891727767 4.475952502003177 0 0 2
2106 0 2 0.5897 10.703144698602152 14.096609524149626 4.4552305223874 0 0 -3
880 0 1 -1.1794 7.189282150187806 15.632022005230603 4.545342773889292 0 -1 1
1384 0 1 -1.1794 8.830867378301756 13.956406834033368 7.169374729442621 0 0 0
1386 0 2 0.5897 7.970142063759915 14.202700070497578 7.45117581834844 0 0 0
2105 0 2 0.5897 10.271620580347184 13.837119696371776 5.891566148701349 0 -1 -3
2104 0 1 -1.1794 10.89303462091789 14.389853780088377 5.3625194819485955 0 -1 -3
1385 0 2 0.5897 9.127417612822542 13.278343775947056 7.805470061134668 0 0 0
881 0 2 0.5897 7.313294679331173 16.13510203767741 5.348278044984846 0 -1 1
30 0 2 0.5897 1.2981192415205718 0.0971399347031026 3.9566112492388292 0 0 1
1602 0 2 0.5897 4.054700731152868 16.258552664250672 5.646526835763333 0 0 0
62 0 2 0.5897 4.3041268976130915 18.28119708550226 4.50947876163655 0 0 0
1600 0 1 -1.1794 4.015338831804897 17.189317896058704 5.85437483683661 0 0 0
1813 0 1 -1.1794 1.3692404095080808 17.54699022527254 6.146512596716428 0 -1 0
1814 0 2 0.5897 2.307035407376371 17.502853903063855 6.303703415115334 0 -1 0
1601 0 2 0.5897 4.658234210540255 17.28937120212615 6.543598181253579 0 0 0
523 0 1 -1.1794 5.773219020456685 17.917318676005518 7.7516059470809555 0 -1 0
1815 0 2 0.5897 1.3777475306966305 18.25212618680711 5.444184186311889 0 -1 0
524 0 2 0.5897 5.81494641620691 18.8510537923471 7.847420640446189 0 -1 0
1143 0 2 0.5897 2.476746492216575 19.07684201563739 8.66678416722877 0 0 1
2075 0 2 0.5897 10.476469457643715 16.213634346686273 5.6124376529887625 0 -2 1
1428 0 2 0.5897 11.602468664388594 17.904907904104014 4.82510176528539 0 1 -1
2067 0 2 0.5897 12.172862972588591 13.039916666918575 1.1139390441054184 0 0 2
2074 0 1 -1.1794 10.626915048858164 17.10861982175222 5.813134031214777 0 -2 1
2076 0 2 0.5897 9.719655533314441 17.511123699113686 5.898266566970304 0 -2 1
2126 0 2 0.5897 7.879577294891728 18.111078178822417 5.5701940326508215 0 -1 0
2125 0 1 -1.1794 8.074759325937443 17.53721058657647 6.305197442536407 0 -1 0
2127 0 2 0.5897 7.4549293969617025 17.811319147270176 7.015612149934663 0 -1 0
1578 0 2 0.5897 11.40441877922323 15.879785222909451 8.040637881974959 0 0 -1
153 0 2 0.5897 9.138192468046885 19.18894951900285 8.00413245999591 0 0 1
1270 0 1 -1.1794 1.073297882630878 2.0013476841175257 11.670661340877468 0 0 0
2063 0 2 0.5897 2.910349287671101 2.0987806344551876 8.824031804795398 0 0 1
2062 0 1 -1.1794 3.0261063249842146 2.573955604303262 9.653126143089763 0 0 1
1878 0 2 0.5897 5.015514371948868 2.3244875301974663 9.815567599115296 0 0 1
1272 0 2 0.5897 1.6620273200735456 2.348806009023761 10.986183668021646 0 0 0
1876 0 1 -1.1794 5.912124867963894 2.219095890585044 9.493746474888157 0 0 1
2064 0 2 0.5897 2.9687134819482437 3.504041555297113 9.436978824259343 0 0 1
1271 0 2 0.5897 1.1935872899325546 2.588755078639357 12.424554956922007 0 0 0
71 0 2 0.5897 4.306731478534388 0.627612867404021 11.30585298422607 0 0 0
1877 0 2 0.5897 6.468534065401057 2.3558369675241706 10.28710045842298 0 0 1
1613 0 2 0.5897 4.191421360267853 3.477221881550068 12.610299179531715 0 0 -1
200 0 2 0.5897 9.156324284364418 1.8263295945508382 8.388399212333319 0 0 -1
837 0 2 0.5897 11.348755483648432 0.9482342856338667 12.109818600832869 0 -1 0
377 0 2 0.5897 8.576272977754108 2.1954056153167136 10.611885901280708 0 0 -1
199 0 1 -1.1794 9.672929205574532 2.31964009813742 9.017546892015966 0 0 -1
376 0 1 -1.1794 7.945187341482783 2.392711372131222 11.341094041569345 0 0 -1
1806 0 2 0.5897 11.581684357104656 1.7500695116289207 9.05950826235654 0 0 -1
201 0 2 0.5897 9.610622864200874 3.2877064632943163 8.880385762816802 0 0 -1
378 0 2 0.5897 7.946392925707382 1.5914782757540036 11.847190247927184 0 0 -1
835 0 1 -1.1794 10.831720006086039 0.0965814203000912 12.183244184127174 0 -1 0
836 0 2 0.5897 10.892771989634939 19.653538035190163 11.31337894141613 0 -2 0
659 0 2 0.5897 8.062360735515384 3.6149545199317212 12.761674343989824 0 1 -2
1332 0 2 0.5897 6.330447221612372 3.890119131656959 8.629407520546673 0 0 0
1034 0 2 0.5897 1.0597183923119182 6.742110713511117 11.531270200760432 0 0 1
1033 0 1 -1.1794 0.9682217062498526 5.756936171513736 11.360313012844367 0 0 1
1035 0 2 0.5897 1.0414242461742 5.249490203755629 12.217219055785549 0 0 1
244 0 1 -1.1794 2.7590875900581397 5.271122190622832 9.153602955706262 1 0 0
245 0 2 0.5897 3.617453140832597 5.417560373653622 9.576143537442723 1 0 0
246 0 2 0.5897 2.0971727109992466 5.464249402645648 9.782957074457826 1 1 0
265 0 1 -1.1794 4.993014174466072 6.024167300024058 10.714082537822696 0 1 1
267 0 2 0.5897 4.742221918657187 6.888984518156319 10.981445815545468 0 1 1
266 0 2 0.5897 5.968832932711668 5.91651635117262 10.822045182883333 0 1 1
1614 0 2 0.5897 4.699523532829891 4.865710527091588 12.208727004453033 0 0 -1
1899 0 2 0.5897 9.310230410720427 5.890538330034307 8.478062954866244 0 -1 1
1912 0 1 -1.1794 11.403516535058095 4.981789077393231 10.53468161674611 0 -4 1
1913 0 2 0.5897 10.558453883565486 5.07770588279088 10.006147076000863 0 -4 1
1897 0 1 -1.1794 9.316939653170387 5.15834372938132 9.067102388772774 0 -1 1
1898 0 2 0.5897 8.67049894293745 5.378830076476797 9.783782258816933 0 -1 1
640 0 1 -1.1794 7.621569994845624 5.955427738405441 11.040113399667504 0 1 -1
642 0 2 0.5897 7.735674659855999 6.922572505180975 11.119557789123323 0 1 -1
1629 0 2 0.5897 11.442680464252478 5.891784212883528 12.25932910358768 0 1 0
641 0 2 0.5897 7.953180031936665 5.593487899668187 11.876255103050198 0 1 -1
369 0 2 0.5897 11.471362284221033 7.825230768696522 11.486828324337464 0 -1 0
1111 0 1 -1.1794 0.9725659066014813 18.771650855904472 17.99312616684803 0 -1 -1
639 0 2 0.5897 2.305197638508713 8.32100935975733 8.862921346200052 0 -1 0
1764 0 2 0.5897 5.300090963505024 8.291887813177963 8.756887822740172 1 0 0
2120 0 2 0.5897 2.6034514849950474 10.853021631369113 8.715974899302813 0 0 -1
1355 0 2 0.5897 5.9500225674602545 10.550998831804197 8.407876866485342 0 -1 0
637 0 1 -1.1794 2.5101761889772174 9.044951297980637 9.498270228954228 0 -1 0
1762 0 1 -1.1794 5.158857121208429 9.051147712761901 9.348788426805063 1 0 0
638 0 2 0.5897 3.45025819921995 8.869763960165203 9.637315748270225 0 -1 0
104 0 2 0.5897 1.7124761622080913 8.726276371267721 10.813476753564375 0 0 0
270 0 2 0.5897 4.692749479456741 11.21871035552398 12.152885344862396 0 0 0
1107 0 2 0.5897 1.3687143120627696 11.701851399497532 11.633583823204816 0 0 0
2119 0 1 -1.1794 2.7432995130752773 11.797904719194017 8.816879972198707 0 0 -1
1763 0 2 0.5897 5.764020641066365 8.838107537290622 10.068185010862829 1 0 0
105 0 2 0.5897 1.4523086170271722 9.22332122218098 12.315869691317621 0 0 0
103 0 1 -1.1794 1.2020841349536944 8.528177279566949 11.62091355036611 0 0 0
841 0 1 -1.1794 7.446028845360512 8.789174221065169 10.926477369396393 0 0 0
842 0 2 0.5897 8.198623889750856 9.147094964055805 10.336549706387663 0 0 0
1580 0 2 0.5897 9.601630265004088 10.380270812043783 9.1600545687045 0 1 -1
1579 0 1 -1.1794 9.499361028244477 9.423250971014651 9.302829618126319 0 1 -1
1581 0 2 0.5897 10.264076030470312 9.186701891445566 9.859029279195749 0 1 -1
368 0 2 0.5897 11.692017293818935 9.291178810924087 11.581247260100533 0 -1 0
367 0 1 -1.1794 11.836872471828233 8.524963623808322 10.965675092958538 0 -1 0
843 0 2 0.5897 7.498956585980531 9.375224549343155 11.698565990632545 0 0 0
1259 0 2 0.5897 7.909115641311498 12.304762605363118 11.898008891288661 1 -1 0
2053 0 1 -1.1794 9.59709290673549 12.05899523850382 9.242347569682858 0 0 1
431 0 2 0.5897 11.07194792557406 11.539593948115817 12.913394506226023 0 0 -3
2121 0 2 0.5897 2.4243058605730696 12.35142218834787 8.082114344352869 0 0 -1
1105 0 1 -1.1794 1.0527537733342633 12.249897445847951 10.929352888551685 0 0 0
1106 0 2 0.5897 1.5586123330729094 12.039925339962801 10.125249128688658 0 0 0
50 0 2 0.5897 5.71785631115562 12.473365120448348 10.450797092458869 0 0 -1
51 0 2 0.5897 4.307240106555196 12.093772646321128 9.815996117012723 0 0 -1
49 0 1 -1.1794 4.804463473470321 12.240049589285288 10.627933764518453 0 0 -1
2038 0 1 -1.1794 1.2810464162080133 14.939960910748772 11.254742854318575 0 1 0
2184 0 2 0.5897 4.563259737470416 13.610190557690588 11.695101245517064 0 0 0
1513 0 1 -1.1794 5.452464693412952 16.10470141343061 9.686473795694285 0 -1 -1
1514 0 2 0.5897 4.553939073926447 16.00041036304268 10.023925419883739 0 -1 -1
1515 0 2 0.5897 6.093636159395048 16.010916523811943 10.38142840791877 0 -1 -1
2040 0 2 0.5897 1.390137665119671 13.991039372576779 11.278227324487068 0 1 0
1484 0 2 0.5897 2.3248896440640006 15.615786572426916 10.1042557797826 1 0 0
1483 0 1 -1.1794 2.8772825670687934 15.916011062863483 9.362900640364826 1 0 0
508 0 1 -1.1794 0.8230894914268002 19.105366486885607 11.299991871619197 0 -2 0
2054 0 2 0.5897 8.988429070886399 12.369920041156684 9.922009906701295 0 0 1
2055 0 2 0.5897 10.481024984087776 12.434603017888062 9.530297864755834 0 0 0
1258 0 1 -1.1794 7.687496308592976 12.86854840424768 11.118156995755372 1 -1 0
225 0 2 0.5897 9.238032582348634 15.381243606310099 8.172724011190102 1 -2 -3
1260 0 2 0.5897 7.90668373551761 13.771428075917914 11.37877881155174 1 -1 0
1843 0 1 -1.1794 7.576755963453135 15.669108950596533 11.172903046181366 0 -2 2
1844 0 2 0.5897 8.232775817886363 15.867560905293903 10.46070300213679 0 -2 2
2215 0 1 -1.1794 11.790367281766548 16.11527772770221 11.080879730196726 0 -1 1
1278 0 2 0.5897 11.155390566913608 13.726613627467792 11.687940625456676 0 0 1
1845 0 2 0.5897 7.830213788458559 16.305205589057326 11.87279725101325 0 -2 2
814 0 1 -1.1794 0.8371999390577441 1.865148338131666 4.731779145487371 0 1 1
1019 0 2 0.5897 1.1007350855738838 17.300760577772877 13.810147200159516 0 -1 0
2039 0 2 0.5897 1.306198306618718 15.321358795031333 12.124655688225259 0 1 0
1485 0 2 0.5897 2.851993210714368 16.8943236931707 9.408666878093278 1 0 0
525 0 2 0.5897 5.717442878846913 17.529336321823106 8.620872471332168 0 -1 0
1024 0 1 -1.1794 5.073608446302949 18.941739411254694 10.674429518911914 0 0 0
1026 0 2 0.5897 4.530526496310214 19.150063579543893 9.965184257973997 0 0 0
1142 0 2 0.5897 1.697272850419747 18.724896508921862 9.963056368633355 0 0 1
1141 0 1 -1.1794 2.567863855984223 18.528698600981464 9.45723546296936 0 0 1
1025 0 2 0.5897 4.717903560285761 18.133833414400126 11.072882384815737 0 0 0
590 0 2 0.5897 7.051774902619012 19.555068260289616 11.059970856141033 0 -1 0
588 0 2 0.5897 0.995920627425108 4.032650458857292 7.102551705057828 0 0 0
1020 0 2 0.5897 1.2808772071622334 17.574969300143522 12.39504880264732 0 -1 0
223 0 1 -1.1794 9.358088518334515 16.02854685842589 8.934183516518832 1 -2 -3
2216 0 2 0.5897 10.927943817711348 15.856193948859687 10.623600558483579 0 -1 1
2217 0 2 0.5897 11.57145719008039 16.745799677999155 11.804752362228427 0 -1 1
224 0 2 0.5897 9.0259805121765 16.90986255298133 8.632736382677033 1 -2 -3
39 0 2 0.5897 11.073166536521478 18.933617151882583 9.327947626972882 0 0 -1
152 0 2 0.5897 8.74629374816033 19.333271872552874 9.530512602004968 0 0 1
151 0 1 -1.1794 9.179439531250889 18.773720578481335 8.846376502971907 0 0 1
589 0 1 -1.1794 8.008263379647723 19.64717727305006 11.161423632895637 0 -1 0
591 0 2 0.5897 8.153575868646563 18.927949712910767 11.837935850207504 0 -1 0
37 0 1 -1.1794 11.955767262401954 18.819556677049093 9.690958616075115 0 0 -1
70 0 1 -1.1794 4.41492577223752 1.360724155636522 11.9221642831243 0 0 0
72 0 2 0.5897 5.125687250214886 1.1987513365060896 12.529720351764096 0 0 0
849 0 2 0.5897 3.1324265674637632 0.8986910354015227 13.137578573225122 0 1 0
847 0 1 -1.1794 2.5685068854456485 0.9189029845060989 13.932795001978967 0 1 0
1847 0 2 0.5897 2.8568411666793736 1.8903592474107083 15.299732099161803 0 1 0
131 0 2 0.5897 5.926825929632917 3.223558011783071 15.996621729418127 0 -1 1
1071 0 2 0.5897 2.1545830022279953 4.377022980016562 13.906602749765627 0 0 0
848 0 2 0.5897 1.704964809375166 0.9232119041179101 13.556339389151093 0 1 0
1069 0 1 -1.1794 1.3744881782220069 4.070047672582653 13.434138005264982 0 0 0
1848 0 2 0.5897 2.880898448616283 3.237477816749541 16.21235332416194 0 1 0
1846 0 1 -1.1794 2.812125021336751 2.2410994270292135 16.231020649782995 0 1 0
130 0 1 -1.1794 5.841150081450475 2.352599362028 16.41998304015894 0 -1 1
132 0 2 0.5897 4.922629331894288 2.2363078377733148 16.70841600697441 0 -1 1
819 0 2 0.5897 5.957219349933743 1.4532682683161922 14.849957765316361 0 1 0
279 0 2 0.5897 11.766680767840205 3.1926667422438872 11.40713822279697 0 4 -2
817 0 1 -1.1794 6.251801474670151 1.021556948825416 14.012664696744308 0 1 0
1433 0 2 0.5897 10.81471639153804 3.134701987187618 15.119475081969103 0 3 1
1432 0 1 -1.1794 11.10343075358945 3.5013107937488015 14.239158413611447 0 3 1
1185 0 2 0.5897 8.081919012302617 0.6045658680891653 13.907691853119585 0 3 2
863 0 2 0.5897 9.266861449260404 1.6788589376371097 15.924311966770384 0 2 1
1184 0 2 0.5897 9.459179737586458 0.136800904310974 13.352900302106468 0 3 2
1183 0 1 -1.1794 9.010178351335627 0.555819802905439 14.073224944802424 0 3 2
862 0 1 -1.1794 9.942534522400502 2.062397077694885 16.519079514858618 0 2 1
660 0 2 0.5897 9.18768998029422 4.263774850276503 13.61890590907309 0 1 -2
658 0 1 -1.1794 8.387395235392493 4.487021032594304 13.068503285753238 0 1 -2
864 0 2 0.5897 9.488380162405656 2.6468700642026537 17.07073072237921 0 2 1
278 0 2 0.5897 11.695866618328225 2.831917350984434 12.831457061120487 0 4 -2
1612 0 1 -1.1794 4.484283935186427 4.322482501640425 12.999810962414342 0 0 -1
86 0 2 0.5897 5.58429483343623 4.541060835236375 14.150394414174162 0 0 0
2085 0 2 0.5897 3.2785112926039752 5.604020270274792 15.221429886647424 0 1 -1
1771 0 1 -1.1794 2.649432876042752 7.365330023295557 14.249978667256658 0 -1 0
1773 0 2 0.5897 1.7194570098049662 7.437022366438527 14.096527599972069 0 -1 0
2083 0 1 -1.1794 3.0808616515053706 4.860439646037371 15.763567957353017 0 1 -1
1772 0 2 0.5897 3.1570092909037473 7.503942360011113 13.412621167103019 0 -1 0
85 0 1 -1.1794 6.087732930872788 4.786068300230562 14.96003449857376 0 0 0
33 0 2 0.5897 6.103832674887025 6.51860157328089 14.665999521034683 0 -1 1
31 0 1 -1.1794 6.150978044774313 7.361574267568832 14.196329765195214 0 -1 0
2084 0 2 0.5897 2.3217929401333604 5.101838031420896 16.276571760585934 0 1 -1
1628 0 2 0.5897 11.671503220932038 6.391923248469987 13.671763458266964 0 1 0
1627 0 1 -1.1794 11.165479890177602 6.610760890956473 12.834941274285928 0 1 0
87 0 2 0.5897 7.029237183599557 4.64893062787256 14.723855870873155 0 0 0
1309 0 1 -1.1794 8.655495170758353 4.751929680631788 16.113539717454152 0 1 1