LAMMPS (23 Jun 2022)
echo both

include		in.partitions
variable        pid world 0
include		in.temp
variable	temperature equal 265.0
variable        tempDamp equal 0.100 # this is 0.1 ps
include		in.pressure
variable        pressure equal 6079.5
variable        pressureDamp equal 1.0 #this is 1ps
include		in.seed
variable        seed world 745823

units           metal
atom_style	full
read_restart	restart.lmp.${pid}
read_restart	restart.lmp.0
Reading restart file ...
  restart file = 23 Jun 2022, LAMMPS = 23 Jun 2022
  restoring atom style full from restart
  orthogonal box = (0.90811024 0 0) to (46.542589 20.047001 20.857)
  4 by 1 by 1 MPI processor grid
Summary of lammps deepmd module ...
  >>> Info of deepmd-kit:
  installed to:       /u/sigbjobo/software/DEEPMD_FROM_SOURCE/deepmd-kit/install
  source:             v2.1.3
  source branch:       master
  source commit:      5a32c49
  source commit at:   2022-07-01 09:52:58 +0800
  surpport model ver.:1.1 
  build float prec:   double
  build with tf inc:  /u/sigbjobo/software/DEEPMD_FROM_SOURCE/tensorflow/install/include;/u/sigbjobo/software/DEEPMD_FROM_SOURCE/tensorflow/install/include
  build with tf lib:  /u/sigbjobo/software/DEEPMD_FROM_SOURCE/tensorflow/install/lib/libtensorflow_cc.so;/u/sigbjobo/software/DEEPMD_FROM_SOURCE/tensorflow/install/lib/libtensorflow_framework.so
  set tf intra_op_parallelism_threads: 0
  set tf inter_op_parallelism_threads: 0
  >>> Info of lammps module:
  use deepmd-kit at:  /u/sigbjobo/software/DEEPMD_FROM_SOURCE/deepmd-kit/install
  source:             v2.1.3
  source branch:      master
  source commit:      5a32c49
  source commit at:   2022-07-01 09:52:58 +0800
  build float prec:   double
  build with tf inc:  /u/sigbjobo/software/DEEPMD_FROM_SOURCE/tensorflow/install/include;/u/sigbjobo/software/DEEPMD_FROM_SOURCE/tensorflow/install/include
  build with tf lib:  /u/sigbjobo/software/DEEPMD_FROM_SOURCE/tensorflow/install/lib/libtensorflow_cc.so;/u/sigbjobo/software/DEEPMD_FROM_SOURCE/tensorflow/install/lib/libtensorflow_framework.so
  restoring pair style deepmd from restart
  2268 atoms
Finding 1-2 1-3 1-4 neighbors ...
  special bond factors lj:    0        0        0       
  special bond factors coul:  0        0        0       
     0 = max # of 1-2 neighbors
     0 = max # of 1-3 neighbors
     0 = max # of 1-4 neighbors
     1 = max # of special neighbors
  special bonds CPU = 0.000 seconds
  read_restart CPU = 0.050 seconds
include 	in.setup
variable	out_freq equal 500
variable	out_freq2 equal 1000
variable	out_freq3 equal 5000

timestep        0.0005

neigh_modify    delay 7 every 1

include         in.deepmd
# This is deepMD model

# create groups ###
#group ox type 2
#group hy type 1

mass 2 15.999
mass 1 1.008

pair_style      deepmd ../graph.pb
pair_coeff      * *

bond_style      none
angle_style     none
dihedral_style  none
improper_style  none
neigh_modify exclude none


neighbor        2.0 bin
neigh_modify    every 10 delay 0 check no

thermo          ${out_freq}
thermo          500
thermo_style 	custom step temp pe etotal epair emol press lx ly lz vol pxx pyy pzz pxy pxz pyz
#thermo_modify	flush yes
restart 	${out_freq} restart.lmp.${pid} restart2.lmp.${pid}
restart 	500 restart.lmp.${pid} restart2.lmp.${pid}
restart 	500 restart.lmp.0 restart2.lmp.${pid}
restart 	500 restart.lmp.0 restart2.lmp.0

include		in.dump
dump            myDump all atom ${out_freq3} dump.water.${pid}
dump            myDump all atom 5000 dump.water.${pid}
dump            myDump all atom 5000 dump.water.0
dump            myDump2 all dcd ${out_freq2} dump.dcd.${pid}
dump            myDump2 all dcd 1000 dump.dcd.${pid}
dump            myDump2 all dcd 1000 dump.dcd.0
dump_modify     myDump append yes
dump_modify     myDump2 append yes


timer           timeout 23:50:00 every 1000
New timer settings: style=normal  mode=nosync  timeout=23:50:00

fix             1 all plumed plumedfile plumed.dat outfile plumed.out
fix             3 all nph x ${pressure} ${pressure} ${pressureDamp}
fix             3 all nph x 6079.5 ${pressure} ${pressureDamp}
fix             3 all nph x 6079.5 6079.5 ${pressureDamp}
fix             3 all nph x 6079.5 6079.5 1
fix             4 all temp/csvr ${temperature} ${temperature} ${tempDamp} ${seed}
fix             4 all temp/csvr 265 ${temperature} ${tempDamp} ${seed}
fix             4 all temp/csvr 265 265 ${tempDamp} ${seed}
fix             4 all temp/csvr 265 265 0.1 ${seed}
fix             4 all temp/csvr 265 265 0.1 745823

run             40000000 upto

CITE-CITE-CITE-CITE-CITE-CITE-CITE-CITE-CITE-CITE-CITE-CITE-CITE

Your simulation uses code contributions which should be cited:

- USER-DEEPMD package:

@article{Wang_ComputPhysCommun_2018_v228_p178,
  author = {Wang, Han and Zhang, Linfeng and Han, Jiequn and E, Weinan},
  doi = {10.1016/j.cpc.2018.03.016},
  url = {https://doi.org/10.1016/j.cpc.2018.03.016},
  year = 2018,
  month = {jul},
  publisher = {Elsevier {BV}},
  volume = 228,
  journal = {Comput. Phys. Commun.},
  title = {{DeePMD-kit: A deep learning package for many-body potential energy representation and molecular dynamics}},
  pages = {178--184}
}

CITE-CITE-CITE-CITE-CITE-CITE-CITE-CITE-CITE-CITE-CITE-CITE-CITE

Generated 0 of 1 mixed pair_coeff terms from geometric mixing rule
Neighbor list info ...
  update every 10 steps, delay 0 steps, check no
  max neighbors/atom: 2000, page size: 100000
  master list distance cutoff = 8
  ghost atom cutoff = 8
  binsize = 4, bins = 12 6 6
  1 neighbor lists, perpetual/occasional/extra = 1 0 0
  (1) pair deepmd, perpetual
      attributes: full, newton on
      pair build: full/bin
      stencil: full/bin/3d
      bin: standard
Per MPI rank memory allocation (min/avg/max) = 6.187 | 6.188 | 6.191 Mbytes
   Step          Temp          PotEng         TotEng         E_pair         E_mol          Press            Lx             Ly             Lz           Volume          Pxx            Pyy            Pzz            Pxy            Pxz            Pyz      
  19106000   267.93972     -348.26389     -269.74878     -348.26389      0              4293.5313      45.634479      20.047001      20.857         19080.702      6064.3073      3599.5456      3216.7411     -300.37445      336.9465      -936.11439    
  19106500   272.90261     -350.52202     -270.55262     -350.52241      0              3513.9609      45.965985      20.047001      20.857         19219.311      5447.2143      4589.9522      504.71612     -908.22491     -2135.0693     -624.84974    
  19107000   264.49952     -348.74062     -271.2336      -348.75548      0              4851.5418      46.034647      20.047001      20.857         19248.021      3785.8832      6552.3038      4216.4385      686.32501      1801.2837     -1022.1447    
  19107500   266.75728     -351.41574     -273.24713     -351.37616      0              4678.473       45.901739      20.047001      20.857         19192.449      6215.753       2575.3352      5244.3308      52.160118     -180.55852      13.180876    
  19108000   270.15157     -350.17416     -271.0109      -350.17739      0              5416.7381      45.875336      20.047001      20.857         19181.409      5428.4456      5488.5966      5333.172      -18.54054       1668.3224     -121.78065    
  19108500   265.89262     -348.16588     -270.25063     -348.16191      0              4783.195       45.63515       20.047001      20.857         19080.983      6498.4244      3173.9126      4677.2481      115.05615     -43.988711     -920.6384     
  19109000   265.67109     -348.60194     -270.75161     -348.58785      0              4916.6682      45.587017      20.047001      20.857         19060.857      4103.621       4869.2444      5777.1393     -1184.4808      902.08397      1601.6727    
  19109500   261.35045     -350.14311     -273.55887     -350.1173       0              7328.8338      45.638345      20.047001      20.857         19082.319      7692.6425      8556.7253      5737.1335     -272.13069      1062.6427      1896.7888    
  19110000   255.3819      -349.43414     -274.59888     -349.40968      0              4150.6         45.854069      20.047001      20.857         19172.517      3056.5215      4454.8311      4940.4476     -291.28968      1758.9566      5.9647841    
  19110500   261.91503     -349.90947     -273.15979     -349.89194      0              5642.5748      45.788305      20.047001      20.857         19145.02       7063.7248      5607.4865      4256.513      -1337.2178      815.33007     -554.62645    
  19111000   265.51229     -349.472       -271.6682      -349.42229      0              6671.5996      45.641093      20.047001      20.857         19083.467      5306.7614      8033.9524      6674.0851     -312.71004     -983.47227     -13.470281    
  19111500   265.35114     -351.33921     -273.58264     -351.29588      0              5538.5138      45.681305      20.047001      20.857         19100.281      8701.3202      4265.3495      3648.8716      749.1248      -148.90279     -244.55257    
  19112000   267.60574     -351.68729     -273.27004     -351.64134      0              5553.462       46.009479      20.047001      20.857         19237.497      6551.7893      4901.3558      5207.2408     -2134.9105     -438.57738     -371.22527    
  19112500   262.90885     -351.97424     -274.93333     -351.93866      0              3554.7972      46.285666      20.047001      20.857         19352.976      3937.4082      1240.1723      5486.8112     -1051.9534      1933.4603     -1385.0585    
  19113000   262.78442     -348.06508     -271.06064     -348.01646      0              5152.3287      45.854636      20.047001      20.857         19172.754      7234.6042      4943.4059      3278.9759     -255.1183       1352.0688      2383.5212    
  19113500   265.15768     -348.59347     -270.89359     -348.51765      0              6367.5315      45.712113      20.047001      20.857         19113.162      7912.9384      4469.7208      6719.9352      356.60338     -919.00471     -179.0675     
  19114000   265.62101     -350.6953      -272.85964     -350.63865      0              4145.4802      46.08432       20.047001      20.857         19268.79       4222.3401      4626.2537      3587.8469      37.680724      281.76473      672.74142    
  19114500   258.57408     -348.68853     -272.91786     -348.6149       0              3579.3068      46.142539      20.047001      20.857         19293.132      2728.6272      3797.0745      4212.2185      1242.0481      746.39259      546.99231    
  19115000   264.53067     -346.42368     -268.90754     -346.34066      0              7674.1641      45.82122       20.047001      20.857         19158.782      8883.7376      6533.8813      7604.8735     -1299.6649     -217.79857     -855.84072    
  19115500   263.93775     -347.19716     -269.85476     -347.12995      0              5430.6596      45.785197      20.047001      20.857         19143.72       8006.3619      3944.2627      4341.3542     -883.93584      4199.2014      795.3378     
  19116000   266.79949     -346.52837     -268.34739     -346.47664      0              4980.7025      45.96713       20.047001      20.857         19219.79       4285.77        5193.9318      5462.4057     -337.96155      1511.6993     -1273.7659    
  19116500   277.18395     -347.16514     -265.94116     -347.12466      0              4358.2958      46.033427      20.047001      20.857         19247.51       3984.8458      6410.937       2679.1047     -1186.9708     -200.78218      1538.2798    
  19117000   267.52086     -348.13974     -269.74736     -348.124        0              5938.0123      45.791382      20.047001      20.857         19146.306      8890.9885      4039.8019      4883.2463     -205.40878      499.29922     -2749.701     
  19117500   264.71889     -349.23065     -271.65935     -349.18523      0              7600.6482      45.839664      20.047001      20.857         19166.494      7081.3846      8105.3691      7615.191      -768.13012      1475.8965      1386.8255    
  19118000   267.75474     -348.85998     -270.39907     -348.83247      0              4957.4829      46.180611      20.047001      20.857         19309.051      7143.4951      4492           3236.9537      921.79736     -1036.2157      2174.5818    
  19118500   263.51005     -346.48142     -269.26435     -346.4582       0              6597.366       46.098151      20.047001      20.857         19274.573      6204.386       6143.8784      7443.8337     -504.54228      1012.3808     -1660.9499    
  19119000   271.57849     -347.40226     -267.82087     -347.38753      0              6214.8878      45.884595      20.047001      20.857         19185.281      6477.2282      5399.0509      6768.3844      331.80293     -578.67438     -2337.2261    
  19119500   265.05835     -349.31933     -271.64855     -349.2857       0              5360.8051      45.62798       20.047001      20.857         19077.985      6470.6835      4150.4329      5461.2987     -48.530762      1176.3552      1657.411     
  19120000   264.20516     -350.75971     -273.33895     -350.75653      0              5467.8817      45.848537      20.047001      20.857         19170.204      5349.1561      4744.0953      6310.3938     -39.508726      851.11697     -1129.7222    
  19120500   256.76904     -349.62964     -274.3879      -349.60706      0              6027.4652      45.770118      20.047001      20.857         19137.415      7808.6583      6581.9478      3691.7895     -776.81477      1396.2976     -497.50396    
  19121000   273.20001     -350.79686     -270.74031     -350.76041      0              4393.3819      45.681292      20.047001      20.857         19100.276      4254.4346      4668.3176      4257.3935     -252.24422      299.98087     -22.29029     
  19121500   265.155       -349.70511     -272.00601     -349.69705      0              6371.5706      45.651527      20.047001      20.857         19087.83       7844.219       4594.1758      6676.317      -583.94051     -1747.4987      479.54313    
  19122000   265.63926     -349.50043     -271.65943     -349.51651      0              6442.0814      45.768756      20.047001      20.857         19136.846      6887.9457      7261.2803      5177.0182      575.32184      648.5242      -832.63183    
  19122500   266.39839     -349.99856     -271.93511     -349.99037      0              4354.3769      45.814684      20.047001      20.857         19156.05       4878.8839      5305.884       2878.3628     -40.37363       1125.6435     -1777.0964    
  19123000   268.11774     -351.06012     -272.49284     -351.049        0              4338.612       45.812795      20.047001      20.857         19155.26       3576.8228      5102.8634      4336.1498     -346.57924      1402.4244     -266.7458     
  19123500   264.69461     -350.34586     -272.78167     -350.32042      0              6489.7096      45.734794      20.047001      20.857         19122.646      7784.1624      5810.7836      5874.1829      518.82593     -1672.1561     -1941.3304    
  19124000   263.68349     -352.21996     -274.95206     -352.22357      0              3838.2121      45.88511       20.047001      20.857         19185.496      3260.5412      3634.4553      4619.64        595.91672      79.766201      558.86514    
  19124500   261.70226     -349.69291     -273.00558     -349.67014      0              5565.8544      45.950483      20.047001      20.857         19212.83       4488.6261      6415.3909      5793.5461     -349.66894      1082.663       147.34263    
  19125000   263.83664     -349.51264     -272.19986     -349.4914       0              7415.1968      45.649183      20.047001      20.857         19086.85       8370.6629      8583.6985      5291.229      -844.64103      1076.9019     -918.78114    
  19125500   266.92302     -350.65885     -272.44167     -350.61205      0              8035.5181      45.371009      20.047001      20.857         18970.54       12377.203      5284.6466      6444.7049      1262.9822      669.51895      878.29109    
  19126000   260.55344     -350.6691      -274.31841     -350.62503      0              5418.3015      45.926951      20.047001      20.857         19202.991      5106.5817      6648.7608      4499.5619     -1629.0981      3120.6864      2021.479     
  19126500   263.65926     -350.59804     -273.33724     -350.59166      0              5343.2182      46.209503      20.047001      20.857         19321.131      7020.333       2711.7435      6297.5781      20.396167     -376.9877      -1757.6163    
  19127000   260.99852     -351.26865     -274.78754     -351.21357      0              5333.1139      45.779333      20.047001      20.857         19141.268      4992.9153      7257.8707      3748.5555     -65.008097     -467.59453      157.79256    
  19127500   254.06562     -350.58186     -276.13232     -350.56239      0              6576.4533      45.612193      20.047001      20.857         19071.384      7509.8347      6014.6107      6204.9144      260.96902      1596.2758      527.46625    
  19128000   264.92961     -351.45488     -273.82183     -351.43711      0              7762.9214      45.815317      20.047001      20.857         19156.314      7679.5521      10450.531      5158.6808     -291.19361      1401.8827      1015.2592    
  19128500   266.03695     -350.20519     -272.24766     -350.16251      0              4296.3095      46.013406      20.047001      20.857         19239.139      3951.8047      5118.9197      3818.2042      239.94461      1753.2843     -50.332279    
  19129000   260.64869     -352.59066     -276.21206     -352.54429      0              6815.5566      46.168363      20.047001      20.857         19303.93       6809.8432      7467.3058      6169.5208     -180.09359     -192.9358      -706.5395     
  19129500   263.99177     -350.00942     -272.65118     -349.9572       0              5833.192       45.977258      20.047001      20.857         19224.025      6266.2509      5796.747       5436.5779     -903.8635       348.67565      2315.8938    
  19130000   264.86734     -347.35685     -269.74204     -347.31559      0              6040.35        45.606052      20.047001      20.857         19068.816      7142.4345      4463.649       6514.9666      411.55734      2319.856       451.17569    
  19130500   266.8511      -350.39325     -272.19714     -350.35069      0              6196.043       45.772638      20.047001      20.857         19138.469      7511.5802      5599.3259      5477.2229      256.71558     -2262.0381      1470.7682    
  19131000   272.89262     -347.0873      -267.12083     -347.0706       0              5049.119       45.928573      20.047001      20.857         19203.669      2895.3559      4546.3678      7705.6333      738.59105      777.04655     -1156.2107    
  19131500   272.4164      -350.73738     -270.91045     -350.70705      0              4638.253       45.754751      20.047001      20.857         19130.99       5724.7571      4058.8647      4131.1373      907.322       -800.18207     -455.97473    
  19132000   275.69725     -348.76242     -267.9741      -348.73945      0              4369.0061      45.683766      20.047001      20.857         19101.31       4871.4441      3840.3099      4395.2642      584.64882     -211.57005     -772.24383    
  19132500   261.82472     -350.04207     -273.31885     -350.00442      0              4602.9075      45.774428      20.047001      20.857         19139.218      3220.4773      6476.5414      4111.7037      1201.8492     -895.57162     -1334.9105    
  19133000   268.4082      -349.57521     -270.92282     -349.53361      0              3801.9323      45.950462      20.047001      20.857         19212.821      5973.1755      2620.0465      2812.575      -453.53959      805.31859     -171.54147    
  19133500   268.5227      -350.44261     -271.75667     -350.40386      0              6705.6017      45.768443      20.047001      20.857         19136.715      7552.0124      4801.573       7763.2197      166.72429      1239.9884      620.97276    
  19134000   264.32978     -350.643       -273.18572     -350.62547      0              4553.8881      45.597378      20.047001      20.857         19065.189      6450.419       4060.6276      3150.6177      1795.9654     -1991.6657     -863.1782     
  19134500   268.45673     -350.71389     -272.04728     -350.68099      0              6188.8075      45.586846      20.047001      20.857         19060.786      5521.7786      7102.5247      5942.1191     -902.44795      514.2536      -2364.4014    
  19135000   261.49976     -351.43758     -274.80958     -351.44793      0              5543.4162      45.910451      20.047001      20.857         19196.091      9701.3524      1826.6002      5102.2961      926.09606     -1654.9328     -980.47237    
  19135500   266.10216     -349.75106     -271.77441     -349.76441      0              4292.5386      46.03981       20.047001      20.857         19250.179      4967.0058      2720.0115      5190.5983      1010.6435     -686.52422      2215.0531    
  19136000   278.37544     -348.70673     -267.13361     -348.69722      0              5735.5032      45.745563      20.047001      20.857         19127.149      4454.4624      6104.2742      6647.773      -813.79389     -758.2056       740.41104    
  19136500   270.35112     -349.95784     -270.73611     -349.94965      0              4608.4877      45.656189      20.047001      20.857         19089.78       4524.3501      4740.2428      4560.8702      570.74066      378.8367      -1158.419     
  19137000   271.00554     -348.23012     -268.81662     -348.25197      0              5499.3261      45.673274      20.047001      20.857         19096.923      6084.0047      3903.4138      6510.5598     -866.68935     -234.08395     -769.08249    
  19137500   260.19262     -348.07007     -271.82511     -348.10993      0              5333.1712      45.970781      20.047001      20.857         19221.317      6050.2796      6312.0653      3637.1686     -1065.7408     -2802.8375     -1473.1629    
  19138000   262.82921     -350.81296     -273.7954      -350.83834      0              6379.2641      46.052942      20.047001      20.857         19255.67       6610.4631      5155.4196      7371.9097      847.34437      203.43062     -666.57325    
  19138500   267.82329     -350.30935     -271.82836     -350.31027      0              5604.9001      45.832626      20.047001      20.857         19163.551      5863.5367      6386.1374      4565.0261      347.96135     -777.9138       595.18057    
  19139000   269.18351     -349.2935      -270.41392     -349.25114      0              6437.0327      45.767278      20.047001      20.857         19136.228      6279.4664      5411.399       7620.2326      503.08379     -1030.1975     -65.411665    
  19139500   265.14516     -352.63192     -274.93571     -352.64863      0              2662.2037      45.828731      20.047001      20.857         19161.923      6680.1108     -48.156281      1354.6566     -1599.833       1050.8944      2501.4315    
  19140000   261.43351     -351.25828     -274.6497      -351.29052      0              7193.3747      45.66714       20.047001      20.857         19094.358      7969.0492      6001.797       7609.278      -412.77868      628.18501     -1549.7871    
  19140500   254.34607     -350.44226     -275.91053     -350.44662      0              6827.5242      45.625808      20.047001      20.857         19077.076      8839.0309      5636.32        6007.2217      71.073363      1193.8972     -1986.5606    
  19141000   267.48763     -354.0963      -275.71367     -354.10631      0              5874.695       45.995305      20.047001      20.857         19231.571      7287.3512      4730.177       5606.5567     -850.05585     -73.421681     -2384.4377    
  19141500   266.58599     -351.86321     -273.74479     -351.86618      0              4573.924       45.944636      20.047001      20.857         19210.385      4541.3187      5635.654       3544.7994     -287.14341      3143.0336     -600.48766    
  19142000   261.74291     -351.42045     -274.72121     -351.41794      0              3812.3607      45.902256      20.047001      20.857         19192.665      4083.4426      4436.3088      2917.3306     -403.0315       170.58521     -1860.3673    
  19142500   254.73115     -349.87624     -275.23167     -349.88094      0              5481.2995      45.87344       20.047001      20.857         19180.617      6988.3654      3444.114       6011.4191     -544.21288      441.49673     -58.028791    
  19143000   262.50837     -351.48306     -274.55951     -351.47021      0              5540.1611      45.795939      20.047001      20.857         19148.212      7127.0524      5371.0123      4122.4188      1577.4146      1041.1583      199.34663    
  19143500   264.10209     -352.48459     -275.09403     -352.43249      0              3889.6642      45.827702      20.047001      20.857         19161.493      3620.4693      5156.6034      2891.9199      203.68979      1323.886       637.71075    
  19144000   263.81372     -349.70768     -272.40162     -349.70569      0              4060.7761      45.960582      20.047001      20.857         19217.052      5394.0373      2331.4846      4456.8063      26.818594      308.43669      804.39454    
  19144500   269.42865     -352.07681     -273.12539     -352.09487      0              4996.6873      46.011606      20.047001      20.857         19238.386      5176.6152      4806.6692      5006.7775      493.75641      952.84106      64.749216    
  19145000   263.62265     -352.02455     -274.77448     -352.03548      0              4819.4166      45.949467      20.047001      20.857         19212.405      5320.1939      3581.6536      5556.4023     -1121.2399     -723.68702     -1649.0432    
  19145500   271.74129     -349.78959     -270.1605      -349.78547      0              4292.3185      45.634642      20.047001      20.857         19080.77       5586.441       4140.9111      3149.6033     -1243.9744      1310.027       322.94922    
  19146000   269.08787     -352.55031     -273.69875     -352.53381      0              6918.599       45.920383      20.047001      20.857         19200.244      9364.0948      6068.8342      5322.868      -506.4722       257.58942      1632.2782    
  19146500   258.43208     -350.24753     -274.51847     -350.21686      0              3758.8148      45.920187      20.047001      20.857         19200.162      4125.8984      2879.3839      4271.162      -1844.4113      474.50949      242.58469    
  19147000   257.30284     -350.18156     -274.78341     -350.12784      0              7456.3695      45.696311      20.047001      20.857         19106.555      8855.1846      6410.2967      7103.6272     -779.3086       1530.6273     -1436.2883    
  19147500   267.25211     -351.98608     -273.67246     -351.89551      0              5196.8744      45.903339      20.047001      20.857         19193.118      9315.2434      3503.7822      2771.5977     -1040.1084     -291.76979      271.22368    
  19148000   268.90664     -352.15579     -273.35733     -352.15937      0              3350.1697      46.214226      20.047001      20.857         19323.106      4023.5575      3962.7913      2064.1604     -688.96922      419.12593      119.51557    
  19148500   264.17141     -350.72335     -273.31248     -350.70842      0              5970.2126      46.153873      20.047001      20.857         19297.871      5200.3062      6280.4893      6429.8423      241.74344     -635.20329     -392.40243    
  19149000   263.46549     -350.3615      -273.15748     -350.32474      0              4607.3017      45.895333      20.047001      20.857         19189.77       4277.7334      3894.9872      5649.1845     -138.40122      45.437272      2336.4609    
  19149500   264.9864      -349.8721      -272.22241     -349.8311       0              6246.849       45.643225      20.047001      20.857         19084.359      8260.4411      4465.1901      6014.9159      1728.7716     -1662.0461      1422.4016    
  19150000   263.10811     -352.53453     -275.43524     -352.52553      0              3509.1323      45.816962      20.047001      20.857         19157.002      2696.614       3395.7789      4435.004      -504.95609      335.16115      692.27022    
  19150500   265.83529     -352.1232      -274.22475     -352.09512      0              6196.9225      46.026899      20.047001      20.857         19244.781      7299.7553      4646.498       6644.5143     -495.05795     -723.09826      619.02603    
  19151000   264.20394     -352.89333     -275.47293     -352.8626       0              4257.9571      45.844294      20.047001      20.857         19168.43       5176.2926      1524.4715      6073.1073      296.00421     -504.24972      565.2538     
  19151500   259.71354     -352.54665     -276.44208     -352.4742       0              3436.2386      45.5791        20.047001      20.857         19057.547      5902.4689      783.64131      3622.6054     -35.621026     -602.37122      859.12441    
  19152000   264.32043     -351.80477     -274.35023     -351.81701      0              6483.0612      45.864951      20.047001      20.857         19177.067      5297.8328      8158.5136      5992.8372      1002.4392     -306.27196      1005.0528    
  19152500   265.50294     -350.06765     -272.2666      -350.06971      0              3151.9927      46.028056      20.047001      20.857         19245.264      3333.6324      3590.2598      2532.086      -733.63594     -2856.4401      1988.0841    
  19153000   268.04495     -350.99527     -272.44932     -350.98999      0              4719.2263      45.864998      20.047001      20.857         19177.087      5692.009       1579.6172      6886.0529      2661.2778      879.09814     -185.33919    
  19153500   270.31148     -350.45707     -271.24696     -350.41659      0              4841.3737      45.707018      20.047001      20.857         19111.032      5279.6395      3459.2926      5785.1889      287.4638       498.19998     -286.50585    
  19154000   262.52589     -351.5454      -274.61672     -351.47439      0              3752.8868      45.833883      20.047001      20.857         19164.077      5049.0562      3911.6047      2297.9994     -38.776284     -259.49658      197.87147    
  19154500   261.07403     -349.31056     -272.80732     -349.26234      0              5178.1154      46.03251       20.047001      20.857         19247.127      5840.9826      2871.1703      6822.1935     -544.7538       707.29053     -549.09957    
  19155000   273.82088     -349.52045     -269.28196     -349.46286      0              3068.5529      46.062872      20.047001      20.857         19259.822      5153.0152      2356.6181      1696.0253     -23.288549     -1182.6446      1554.3613    
  19155500   271.42466     -344.38744     -264.85113     -344.33507      0              7757.6909      45.725952      20.047001      20.857         19118.949      7470.6211      7683.562       8118.8896      122.88193      729.05872      777.99204    
  19156000   268.51652     -349.53406     -270.84993     -349.50192      0              5995.7722      45.829401      20.047001      20.857         19162.203      6540.9631      5836.4904      5609.8629      1115.3679     -180.80077     -193.92358    
  19156500   261.13282     -348.82666     -272.3062      -348.79363      0              2825.4473      46.055234      20.047001      20.857         19256.628      2752.3184      4535.6657      1188.3578     -317.30795      128.50881     -275.8526     
  19157000   269.01339     -348.3707      -269.54096     -348.32086      0              6508.4729      45.757181      20.047001      20.857         19132.006      8155.7027      6302.5607      5067.1554     -157.17858      2179.7605     -74.962566    
  19157500   262.36984     -347.31313     -270.43018     -347.27254      0              5444.1802      45.537044      20.047001      20.857         19039.962      6202.3572      6194.6281      3935.5554      976.35619      973.91179     -1718.6651    
  19158000   263.45174     -350.5065      -273.30651     -350.43481      0              5251.3526      45.803777      20.047001      20.857         19151.489      7237.0231      3660.4961      4856.5387      443.75406     -479.04102     -139.45869    
  19158500   265.80376     -347.6102      -269.72099     -347.57961      0              5704.1401      46.013095      20.047001      20.857         19239.009      5372.1704      4768.1546      6972.0953      851.29567      84.685922     -160.41462    
  19159000   264.23834     -349.98614     -272.55565     -349.95872      0              3208.2328      45.917181      20.047001      20.857         19198.906      2615.7428      3494.2784      3514.6771      1840.1411      567.7438      -166.33388    
  19159500   269.59793     -350.48287     -271.48184     -350.43538      0              6844.064       45.549628      20.047001      20.857         19045.224      7189.5477      5537.4991      7805.1451      806.82666      318.78824      1051.9125    
  19160000   266.94647     -348.30409     -270.08003     -348.26952      0              6034.9186      45.748176      20.047001      20.857         19128.241      6314.7117      5602.6875      6187.3567     -117.43879      178.32948     -504.52758    
  19160500   258.46287     -350.3631      -274.62502     -350.38074      0              4999.5025      45.996307      20.047001      20.857         19231.99       8584.7593      3851.5125      2562.2357     -466.77712      120.30979      1674.9015    
  19161000   271.56979     -350.49956     -270.92072     -350.46606      0              4619.2898      45.979449      20.047001      20.857         19224.941      5966.9446      2060.1011      5830.8238     -569.94492     -526.66019      735.83208    
  19161500   268.30219     -351.48384     -272.86251     -351.42294      0              5666.2319      45.78078       20.047001      20.857         19141.874      7200.2684      5063.8219      4734.6053      285.78976      818.83872      1903.467     
  19162000   264.04909     -346.99218     -269.61715     -346.98376      0              4517.4704      46.022663      20.047001      20.857         19243.01       6422.3578      3121.9001      4008.1534     -1265.1339      219.46591      84.080664    
  19162500   263.76329     -348.80232     -271.51103     -348.80735      0              4497.674       46.224822      20.047001      20.857         19327.536      4240.5539      4863.8105      4388.6575     -758.38049      113.62815     -431.36185    
  19163000   254.98558     -349.3555      -274.63637     -349.33809      0              4503.0466      46.13129       20.047001      20.857         19288.429      6391.7155      4682.6337      2434.7905     -635.29929     -1073.2619      1565.523     
  19163500   266.58805     -350.80644     -272.68742     -350.75633      0              4468.8728      45.893244      20.047001      20.857         19188.897      6253.9548      3645.9102      3506.7535      1233.9667     -2190.6719     -1622.0417    
  19164000   264.00088     -350.17614     -272.81523     -350.09472      0              4942.6546      45.808849      20.047001      20.857         19153.61       5042.6033      5306.6914      4478.6691      186.57006     -409.11399      748.50959    
  19164500   268.16741     -349.56443     -270.98259     -349.55638      0              5187.702       45.681083      20.047001      20.857         19100.188      5840.7531      3560.696       6161.657       693.41062      1655.7156     -501.92621    
  19165000   263.00536     -349.91313     -272.84394     -349.92616      0              6530.4993      45.584026      20.047001      20.857         19059.606      6653.7798      6255.0367      6682.6815      768.46908     -452.83335      350.45935    
  19165500   270.96121     -350.6673      -271.26679     -350.62802      0              6263.3742      45.570609      20.047001      20.857         19053.997      6458.3055      6544.3272      5787.49       -1370.7947      241.8601       386.0295     
  19166000   263.42086     -350.70877     -273.51783     -350.69109      0              4833.4774      45.846895      20.047001      20.857         19169.517      4205.2126      3527.1347      6768.0849      826.20358      1852.6716      382.29023    
  19166500   264.23875     -350.17039     -272.73978     -350.1286       0              4313.1364      45.758024      20.047001      20.857         19132.359      3979.7456      4631.049       4328.6144      918.58598      977.78102      1331.2636    
  19167000   262.64882     -349.32342     -272.35872     -349.28262      0              5014.8795      45.613474      20.047001      20.857         19071.919      8060.2958      3936.637       3047.7058     -564.60603      468.30119      2632.2348    
  19167500   268.89572     -349.42091     -270.62566     -349.3924       0              4869.3242      45.755755      20.047001      20.857         19131.41       6057.9981      4515.4588      4034.5156     -1512.7336      1667.0097      809.3637     
  19168000   268.42608     -349.35514     -270.69751     -349.35119      0              6209.6275      45.806592      20.047001      20.857         19152.666      5999.4928      6161.3228      6468.0669     -226.77893      385.69719     -2020.7777    
  19168500   265.09645     -350.86433     -273.18239     -350.81448      0              6411.0951      45.697257      20.047001      20.857         19106.951      8872.5325      5281.3077      5079.4451      819.62079     -884.37553      116.04532    
  19169000   277.53293     -349.27615     -267.94992     -349.22035      0              7568.9241      45.413146      20.047001      20.857         18988.158      7100.0466      8141.3761      7465.3495      468.54839      113.08717     -698.58617    
  19169500   270.13965     -351.93684     -272.77708     -351.90158      0              6049.7869      45.398401      20.047001      20.857         18981.993      6953.5311      6880.3256      4315.5039      221.20918      2044.5707     -133.47455    
  19170000   274.06055     -349.80657     -269.49785     -349.74209      0              5618.6824      45.60831       20.047001      20.857         19069.76       7063.725       3701.4713      6090.8511     -440.43813     -200.33042     -1648.1754    
  19170500   261.83936     -350.30302     -273.57551     -350.22844      0              3442.963       45.675783      20.047001      20.857         19097.972      2031.605       5704.9363      2592.3477      97.254605     -1888.3968      2026.2573    
  19171000   257.44201     -350.50167     -275.06273     -350.42437      0              4435.1227      45.59964       20.047001      20.857         19066.135      3773.7141      5028.2731      4503.3808     -1077.8243      331.472       -135.48813    
  19171500   255.19942     -348.71339     -273.9316      -348.67011      0              5115.5222      45.469897      20.047001      20.857         19011.887      7546.188       3208.2248      4592.1538     -769.95794      531.62327      781.87667    
  19172000   264.96305     -347.04074     -269.39789     -347.06673      0              4730.0581      45.522427      20.047001      20.857         19033.851      7071.7462      2092.8451      5025.5829     -451.00266     -465.2921      -396.4823     
  19172500   278.6147      -351.01202     -269.36879     -350.98741      0              6064.0836      45.418351      20.047001      20.857         18990.335      9626.8422      4471.9117      4093.4968     -396.30692      372.80879      813.41347    
  19173000   261.50172     -351.166       -274.53743     -351.14175      0              5756.045       45.45399       20.047001      20.857         19005.236      7918.9086      4137.1226      5212.1037     -1980.3861     -712.39388     -1843.5044    
  19173500   265.06398     -351.41098     -273.73855     -351.41603      0              4530.2959      45.537171      20.047001      20.857         19040.016      6467.9217      2801.8343      4321.1318     -218.9557       999.70286      1517.7977    
  19174000   264.29624     -353.55088     -276.10343     -353.49354      0              5328.9777      45.746967      20.047001      20.857         19127.736      6087.5163      3455.5917      6443.8252     -251.79625     -668.75574     -95.833188    
  19174500   267.03463     -350.52514     -272.27524     -350.46327      0              5851.5482      45.582267      20.047001      20.857         19058.871      7380.5804      4702.1041      5471.9601      1159.8138     -1148.6157     -710.889      
  19175000   261.77995     -352.01869     -275.30859     -351.98651      0              4522.5648      45.557691      20.047001      20.857         19048.595      4734.8204      3974.4836      4858.3906      774.31661      431.42138     -292.17439    
  19175500   265.59368     -351.5765      -273.74885     -351.56432      0              7376.114       45.681054      20.047001      20.857         19100.176      7298.6255      8413.5989      6416.1177     -1351.4921     -552.24097      60.711536    
  19176000   258.94654     -350.61363     -274.73381     -350.53982      0              3740.8429      45.612073      20.047001      20.857         19071.334      3568.4928      4646.3806      3007.6554     -281.48116      2213.0167      434.91234    
  19176500   261.69255     -351.39509     -274.71061     -351.34152      0              4363.3102      45.836767      20.047001      20.857         19165.283      5165.8224      4400.4327      3523.6755     -570.08342      897.99246     -1581.8712    
  19177000   259.16833     -350.74875     -274.80394     -350.75153      0              5977.4033      46.091661      20.047001      20.857         19271.859      7599.3388      5409.5399      4923.3311     -366.01031      506.55737      549.36778    
  19177500   267.87243     -350.92725     -272.43186     -350.87607      0              6393.4861      45.68575       20.047001      20.857         19102.139      7086.389       6521.1639      5572.9053      505.23408     -532.86323      692.26662    
  19178000   268.77924     -347.46384     -268.70272     -347.41297      0              4728.1417      45.324005      20.047001      20.857         18950.887      5495.4587      2654.5773      6034.389      -65.622738      585.00823     -871.90341    
  19178500   266.79766     -351.40208     -273.22162     -351.41747      0              3621.0739      45.900667      20.047001      20.857         19192.001      4801.6906      3857.8007      2203.7305     -1595.1962      1090.3111      3861.8958    
  19179000   269.53935     -352.6529      -273.66904     -352.64849      0              6432.1377      46.022186      20.047001      20.857         19242.81       7012.1197      6982.3296      5301.9636      1136.0411      923.89709      544.35487    
  19179500   268.5872      -348.66335     -269.9585      -348.65485      0              4550.9186      45.434949      20.047001      20.857         18997.274      5598.831       5231.7189      2822.2059      45.157836      206.25583      731.11861    
  19180000   268.53291     -351.08483     -272.39589     -351.07942      0              5821.2548      45.484285      20.047001      20.857         19017.903      8903.6811      4933.6534      3626.4299      1086.2882      616.86018     -1585.2332    
  19180500   264.53611     -350.65366     -273.13592     -350.633        0              4931.2607      45.740103      20.047001      20.857         19124.866      5824.6872      4705.0447      4264.0502     -874.1562      -772.50806      572.42128    
  19181000   257.89088     -347.28788     -271.71741     -347.28673      0              5879.8164      45.811062      20.047001      20.857         19154.535      5501.2192      7332.577       4805.6529     -881.6712       757.74206     -1349.6708    
  19181500   261.43626     -349.41782     -272.80844     -349.42719      0              3438.4896      45.790959      20.047001      20.857         19146.129      6441.9858      112.29723      3761.1857      101.57854     -266.48589      526.74376    
  19182000   264.4321      -351.15358     -273.66632     -351.18764      0              6407.2678      45.511548      20.047001      20.857         19029.302      7718.4492      5157.1085      6346.2457      220.64994     -271.62546      1141.981     
  19182500   259.71891     -354.3217      -278.21555     -354.29256      0              5167.4144      45.467944      20.047001      20.857         19011.07       4294.0941      5328.4577      5879.6915      200.51871      1288.7604      696.22845    
  19183000   251.00682     -351.2417      -277.68849     -351.19984      0              5374.3576      45.574531      20.047001      20.857         19055.637      3428.2134      7104.5939      5590.2656      338.58636      210.0092      -2230.4       
  19183500   261.23092     -351.24243     -274.69322     -351.1708       0              6060.7851      45.639879      20.047001      20.857         19082.96       6720.4467      5633.5044      5828.4042      173.56522     -246.488        283.47693    
  19184000   272.4855      -349.72534     -269.87816     -349.65436      0              5813.5972      45.429508      20.047001      20.857         18995          7061.1747      5275.446       5104.1709     -1185.0252      22.73229       760.68443    
  19184500   259.97634     -351.66111     -275.47953     -351.59211      0              6241.0826      45.320603      20.047001      20.857         18949.464      6963.4834      6282.4462      5477.3183      726.74416     -18.051336      565.668      
  19185000   252.35473     -351.48952     -277.54132     -351.44463      0              2745.733       45.653046      20.047001      20.857         19088.465      3636.5327      2433.898       2166.7683     -758.2787       278.5138      -207.26134    
  19185500   266.07547     -351.71706     -273.74823     -351.68869      0              4193.5295      45.568693      20.047001      20.857         19053.196      3526.1913      3813.9869      5240.4103      259.23197      3416.7468      3316.031     
  19186000   260.92853     -349.62343     -273.16282     -349.54811      0              5615.5483      45.37003       20.047001      20.857         18970.131      7947.6042      3646.8146      5252.2262      12.551902      871.40467      142.49268    
  19186500   261.68052     -351.60957     -274.92861     -351.53869      0              4888.9932      45.611582      20.047001      20.857         19071.128      5616.3869      3923.8561      5126.7367      1351.1066     -2376.7202      1261.3348    
  19187000   261.04996     -349.81004     -273.31385     -349.74755      0              6843.5137      45.795906      20.047001      20.857         19148.198      8170.7819      6996.1393      5363.6198      128.17668     -773.37754      461.90018    
  19187500   265.34243     -351.22867     -273.47465     -351.14961      0              5363.2885      45.504405      20.047001      20.857         19026.315      3749.5155      6389.4281      5950.9219     -1319.5143      1255.5563     -730.31035    
  19188000   260.03614     -349.92929     -273.73018     -349.83747      0              5547.6023      45.36372       20.047001      20.857         18967.492      6825.5532      6250.1081      3567.1457      158.78501      508.12359     -4330.9553    
  19188500   273.26615     -348.49525     -268.41932     -348.41873      0              6670.5141      45.762854      20.047001      20.857         19134.378      7281.7874      6782.7676      5946.9873      751.96023     -582.84321      1497.6542    
  19189000   268.9518      -351.43149     -272.61981     -351.38698      0              6290.4467      45.893161      20.047001      20.857         19188.862      8317.26        6011.7719      4542.3083      704.24997     -12.268659      91.331453    
  19189500   266.89065     -350.64457     -272.43687     -350.56158      0              7427.0867      45.428915      20.047001      20.857         18994.751      8523.3412      6618.9479      7138.9711      1769.8811     -1248.4432     -422.45271    
  19190000   266.81074     -346.8853      -268.70102     -346.79662      0              5021.679       45.378179      20.047001      20.857         18973.538      5278.9176      5901.1773      3884.942      -26.595984     -671.83595      554.80425    
  19190500   257.80267     -349.88504     -274.34042     -349.81332      0              1690.8696      45.846102      20.047001      20.857         19169.186      1405.1519      2082.1867      1585.2702      2255.546      -436.67577      2022.0872    
  19191000   262.76211     -350.78648     -273.78858     -350.70996      0              4883.2842      46.026786      20.047001      20.857         19244.734      3859.2633      5780.3695      5010.2198     -1043.0952      497.58829     -1795.7976    
  19191500   274.79946     -350.97952     -270.45428     -350.96269      0              7934.1704      45.616211      20.047001      20.857         19073.064      5984.3568      9417.924       8400.2305     -233.22891      241.80317      89.729435    
  19192000   266.46026     -350.84555     -272.76397     -350.76632      0              6245.1291      45.490292      20.047001      20.857         19020.414      7213.8253      4527.9156      6993.6463     -807.98007     -1265.0003      1504.8101    
  19192500   261.42772     -352.74752     -276.14064     -352.67187      0              5175.3213      45.819744      20.047001      20.857         19158.165      3858.4879      6099.4032      5568.0729      613.79561      21.401631     -186.6085     
  19193000   261.82908     -351.1769      -274.45241     -351.12261      0              5211.9335      45.872274      20.047001      20.857         19180.129      4376.0147      5081.3723      6178.4136     -459.20135      1004.5851      1311.5383    
  19193500   265.24135     -352.64956     -274.92516     -352.63558      0              5005.2173      45.828875      20.047001      20.857         19161.983      4621.3372      3261.0892      7133.2255     -594.42563     -575.95078      823.51535    
  19194000   267.33801     -351.55432     -273.21552     -351.50066      0              6452.1118      45.71859       20.047001      20.857         19115.871      10282.546      4368.2291      4705.5601     -123.30465      582.19291     -261.18786    
  19194500   261.77399     -350.51591     -273.80756     -350.45619      0              6867.8268      45.688162      20.047001      20.857         19103.148      7940.1219      6758.1938      5905.1647     -32.692957      1628.794       616.9914     
  19195000   254.17241     -352.91221     -278.43137     -352.83925      0              4373.4607      45.803836      20.047001      20.857         19151.514      6352.886       2922.1359      3845.3603      295.17841      329.38029      455.17683    
  19195500   251.02368     -352.09368     -278.53552     -352.00282      0              4561.5783      45.946519      20.047001      20.857         19211.172      5264.1644      4235.6042      4184.9664      74.543077     -304.66634     -1169.3402    
  19196000   256.19836     -353.79699     -278.72248     -353.74011      0              3403.7554      46.015497      20.047001      20.857         19240.014      3955.7745      4182.922       2072.5697     -663.52361     -581.94369     -2259.9515    
  19196500   263.18031     -351.0048      -273.88435     -350.96159      0              5705.7593      45.675594      20.047001      20.857         19097.893      7239.4851      6092.2657      3785.5271     -679.97022     -1930.2261     -603.74042    
  19197000   264.01147     -351.96947     -274.60547     -351.89837      0              5752.0056      45.493922      20.047001      20.857         19021.932      6003.7608      8032.2258      3220.0301      373.50427     -733.94659      384.93969    
  19197500   268.26285     -355.37593     -276.76613     -355.29003      0              2207.8148      45.659914      20.047001      20.857         19091.337      3384.7818      1012.2622      2226.4005      174.55225     -1031.9726     -1456.734     
  19198000   265.65036     -352.05192     -274.20767     -351.98813      0              6525.4301      45.886784      20.047001      20.857         19186.196      5904.9985      5162.6832      8508.6085     -426.61749      452.12017     -1489.0004    
  19198500   269.11599     -351.95333     -273.09353     -351.90091      0              5460.5047      45.906159      20.047001      20.857         19194.297      4607.2146      6337.761       5436.5384     -51.994834      203.05915     -1446.6998    
  19199000   272.30039     -353.35871     -273.56578     -353.28429      0              6324.0829      45.740853      20.047001      20.857         19125.179      6570.7204      5607.508       6794.0203      2180.4045      521.35013      1785.2507    
  19199500   262.31304     -353.11351     -276.2472      -353.05487      0              4116.2927      45.733135      20.047001      20.857         19121.952      4120.561       5498.078       2730.239      -722.22674     -984.49404     -436.82831    
  19200000   269.72252     -354.02505     -274.98752     -353.97845      0              8903.4923      45.601118      20.047001      20.857         19066.753      11840.453      6484.5941      8385.4295      497.07801      2080.8899     -469.78245    
  19200500   268.78957     -353.03793     -274.27379     -352.94679      0              3099.9594      45.730794      20.047001      20.857         19120.973      4566.1609      1770.4898      2963.2275      832.63325      254.486        956.1181     
  19201000   265.2715      -352.96115     -275.22791     -352.89645      0              5298.9784      45.725831      20.047001      20.857         19118.898      5791.6309      5905.3666      4199.9375      38.706463     -209.61578      1031.4752    
  19201500   260.258       -350.17631     -273.91219     -350.0865       0              4282.9423      45.595069      20.047001      20.857         19064.224      6038.2518      2298.6912      4511.8838     -977.34399     -479.4091       48.107888    
  19202000   264.61485     -352.56468     -275.02387     -352.48949      0              4808.4278      45.629096      20.047001      20.857         19078.451      4458.4131      4181.103       5785.7674      1326.239       86.33077       537.46231    
  19202500   257.74773     -349.89674     -274.36821     -349.84494      0              7594.7568      45.521415      20.047001      20.857         19033.428      8545.4578      6482.1588      7756.6539      812.47851      490.51132      2100.1623    
  19203000   268.32898     -353.83365     -275.20447     -353.76692      0              5141.175       45.626922      20.047001      20.857         19077.542      7094.5727      4176.9955      4151.9569     -538.7526      -507.56945      459.61465    
  19203500   258.31524     -350.67849     -274.98366     -350.63918      0              4760.0465      45.850844      20.047001      20.857         19171.168      4208.9889      5495.6105      4575.5402      1068.5737      245.02041     -460.11027    
  19204000   258.96085     -350.70537     -274.82136     -350.62388      0              4485.9881      45.483173      20.047001      20.857         19017.438      4775.5696      3405.8843      5276.5104      772.37187     -685.11646      900.56392    
  19204500   266.15866     -352.97836     -274.98515     -352.88785      0              5537.9277      45.103776      20.047001      20.857         18858.804      7996.4308      4269.6068      4347.7456      472.77396      802.09688     -876.61407    
  19205000   265.43727     -351.03284     -273.25103     -350.95758      0              2370.3669      45.340271      20.047001      20.857         18957.688      4305.3185      384.28114      2421.5011      419.67333     -456.54845      140.22616    
  19205500   269.5573      -349.87708     -270.88796     -349.80861      0              5387.909       45.747086      20.047001      20.857         19127.785      3160.6903      6750.09        6252.9466     -215.03907      69.225745      50.161847    
  19206000   266.36225     -349.36592     -271.31306     -349.32167      0              4385.1357      45.836088      20.047001      20.857         19164.999      5271.5942      3805.0242      4078.7886      850.11169     -953.18931     -800.70025    
  19206500   265.11135     -351.32479     -273.63848     -351.27651      0              3160.8944      45.602454      20.047001      20.857         19067.312      3288.1451      2392.9472      3801.591      -591.89674     -1794.3542     -137.32905    
  19207000   260.45424     -350.72653     -274.40491     -350.6312       0              6153.9587      45.455784      20.047001      20.857         19005.986      3679.2105      8686.6854      6095.9803      975.84467      1952.1681     -337.07729    
  19207500   263.97044     -351.13263     -273.78065     -351.04413      0              5366.5578      45.820402      20.047001      20.857         19158.44       6680.7572      4961.2607      4457.6554      299.37562      811.11156     -1017.5798    
  19208000   263.52741     -350.40836     -273.1862      -350.35396      0              1778.2457      45.884811      20.047001      20.857         19185.371      1600.4964      844.59009      2889.6506      1393.5959     -283.41745      832.54063    
  19208500   258.52309     -350.32448     -274.56875     -350.25324      0              7947.0564      45.563741      20.047001      20.857         19051.125      11169.557      6017.4515      6654.1611      1026.5396     -718.87272     -221.03482    
  19209000   257.37911     -350.51928     -275.09877     -350.43972      0              6174.0843      45.688944      20.047001      20.857         19103.475      8448.4104      4120.6052      5953.2373      1338.0416     -423.58266      1159.1918    
  19209500   261.24951     -351.26427     -274.70961     -351.20272      0              5623.2332      45.774162      20.047001      20.857         19139.106      5091.2921      3988.1707      7790.2369      2208.1977      295.30565     -257.74908    
  19210000   264.25971     -350.72222     -273.28547     -350.68042      0              7272.8425      45.715225      20.047001      20.857         19114.464      6063.0981      9486.8459      6268.5837      519.55789      1168.3789     -743.13227    
  19210500   267.89226     -353.50398     -275.00278     -353.45784      0              3663.8904      45.860256      20.047001      20.857         19175.104      3559.4711      3786.8643      3645.3357      2225.0359      26.587012     -1265.8947    
  19211000   266.34839     -351.03316     -272.98436     -350.944        0              4514.7468      45.937221      20.047001      20.857         19207.285      3747.343       4409.9473      5386.95       -731.76451     -553.00875      412.04479    
  19211500   268.21957     -348.06963     -269.47251     -347.98213      0              5530.1273      45.743779      20.047001      20.857         19126.402      6486.8089      4503.8908      5599.682       1519.0832      5.0116922     -187.56466    
  19212000   265.16687     -350.72096     -273.01838     -350.62059      0              4702.4492      45.61052       20.047001      20.857         19070.684      5293.3543      5391.2839      3422.7094      1385.6222     -62.94388      -525.3541     
  19212500   266.91153     -348.66728     -270.45346     -348.58101      0              5203.2715      45.762573      20.047001      20.857         19134.261      5457.4494      5319.1702      4833.1948     -693.27208      729.17842     -435.98019    
  19213000   265.3709      -350.36737     -272.605       -350.29887      0              6299.5244      45.682876      20.047001      20.857         19100.938      5602.9704      6789.0567      6506.5462      663.7954       1126.7077      1117.1901    
  19213500   274.9684      -350.95068     -270.37593     -350.88705      0              7431.0486      45.577346      20.047001      20.857         19056.813      7721.9083      6857.1233      7714.1141     -396.50998     -353.41484     -942.88868    
  19214000   265.86874     -348.95974     -271.05149     -348.86807      0              3293.0519      45.673363      20.047001      20.857         19096.96       2696.4657      2006.1693      5176.5206      535.61921     -710.01181     -221.95929    
  19214500   270.768       -350.45572     -271.11183     -350.36779      0              7321.6576      45.595313      20.047001      20.857         19064.326      6377.6926      8257.4025      7329.8776      2131.4571     -2850.4353     -732.92368    
  19215000   264.71959     -350.23122     -272.65971     -350.18533      0              6059.8585      45.460956      20.047001      20.857         19008.149      8111.8009      4340.1143      5727.6602      992.76537     -1261.4447     -1334.8151    
  19215500   266.34708     -351.24365     -273.19524     -351.17155      0              4352.5732      45.549439      20.047001      20.857         19045.145      4583.3334      3520.8389      4953.5474      1585.5034     -3221.3718      435.28548    
  19216000   267.09054     -350.41993     -272.15366     -350.3606       0              5473.2929      45.460702      20.047001      20.857         19008.042      5238.2206      4631.4447      6550.2133      752.36297      1004.8863      576.50825    
  19216500   256.64351     -349.48815     -274.2832      -349.43594      0              5937.9391      45.196959      20.047001      20.857         18897.766      6875.8044      5957.3465      4980.6664      912.57693      1273.8331     -260.87951    
  19217000   263.51065     -349.70626     -272.48901     -349.61838      0              5373.4583      45.457497      20.047001      20.857         19006.702      7104.6573      5395.2522      3620.4653     -336.49572     -2653.5172     -750.24089    
  19217500   266.99468     -352.50203     -274.26385     -352.40423      0              4226.6114      45.876887      20.047001      20.857         19182.058      5763.3163      3398.6157      3517.9021      166.57618     -776.34812     -2066.9905    
  19218000   259.42193     -350.59313     -274.57401     -350.49747      0              6890.1134      45.783432      20.047001      20.857         19142.982      9331.5711      7880.8948      3457.8745     -744.67953     -1678.1878     -527.50269    
  19218500   261.68402     -351.36186     -274.67988     -351.27647      0              7329.1508      45.585971      20.047001      20.857         19060.42       6354.0165      7798.2314      7835.2044     -1323.5597      2.7651257      1154.1144    
  19219000   265.20997     -351.48514     -273.76993     -351.42255      0              4103.1553      45.663818      20.047001      20.857         19092.969      4075.0962      2486.6636      5747.706       2495.5618      343.5867       225.94739    
  19219500   268.82727     -350.70055     -271.92535     -350.65158      0              7522.6146      45.699909      20.047001      20.857         19108.059      6491.7556      7408.2832      8667.8049     -1285.0819     -809.46606     -201.23978    
  19220000   268.44406     -350.03318     -271.37028     -349.93988      0              4712.1016      45.427713      20.047001      20.857         18994.249      6711.0871      6219.4911      1205.7266     -259.13375      944.9414       97.817053    
  19220500   268.83197     -349.66258     -270.88601     -349.57492      0              4985.7815      45.540533      20.047001      20.857         19041.421      7178.1758      3176.2578      4602.9109      907.22656      273.85363      668.35537    
  19221000   266.17339     -348.78078     -270.78327     -348.70593      0              3794.409       45.795397      20.047001      20.857         19147.985      4483.5301      2258.0586      4641.6382     -317.37382     -424.49701      916.4055     
  19221500   268.80541     -351.97067     -273.20188     -351.9057       0              5537.8027      45.72637       20.047001      20.857         19119.124      5519.3387      4256.9423      6837.1273      451.74581     -38.928735      82.908647    
  19222000   263.35465     -353.98455     -276.81302     -353.8947       0              8692.5985      45.519758      20.047001      20.857         19032.735      10964.063      6645.9944      8467.7377     -534.23005     -297.87954     -561.83564    
  19222500   262.20114     -350.18671     -273.35319     -350.12265      0              5818.1976      45.827453      20.047001      20.857         19161.388      6306.1092      4412.0551      6736.4284     -914.21802      1838.5453     -657.34453    
  19223000   267.8584      -354.53458     -276.0433      -354.48606      0              4151.9686      46.04817       20.047001      20.857         19253.675      4110.3639      4662.6067      3682.9354     -984.61024      26.264011      1062.5943    
  19223500   258.17237     -353.47036     -277.81741     -353.38302      0              4794.998       45.681481      20.047001      20.857         19100.354      7850.4789      3272.9327      3261.5824      372.59553     -1492.0344     -192.24294    
  19224000   261.07417     -352.92891     -276.42563     -352.85318      0              6977.9279      45.491456      20.047001      20.857         19020.901      7634.7746      6726.0914      6572.9176     -232.17582      163.95987     -602.31381    
  19224500   268.32366     -353.81455     -275.18693     -353.74797      0              5166.7891      45.68273       20.047001      20.857         19100.877      4699.9838      5104.9798      5695.4037      118.89087      302.35245      986.68325    
  19225000   267.56881     -352.41159     -274.00516     -352.34439      0              7557.028       45.764559      20.047001      20.857         19135.091      6181.5531      7421.9561      9067.5748      125.0775      -426.29186     -1853.7341    
  19225500   269.23325     -352.87034     -273.97618     -352.80178      0              6822.1359      45.663794      20.047001      20.857         19092.959      6868.0267      8004.1936      5594.1875     -149.94676      757.97962     -569.56862    
  19226000   263.43161     -351.44245     -274.24837     -351.38414      0              5849.5186      45.625757      20.047001      20.857         19077.055      6702.9358      4411.7297      6433.8902     -83.893354      1001.8483      318.51276    
  19226500   269.49425     -354.61394     -275.6433      -354.52967      0              5881.7898      45.709755      20.047001      20.857         19112.176      5310.7971      6630.7361      5703.8363      614.53799     -550.48218     -340.27886    
  19227000   268.00491     -353.60305     -275.06883     -353.52686      0              4134.8629      45.999369      20.047001      20.857         19233.27       4640.7583      4802.7846      2961.0456     -1224.5583      1564.4133      294.36758    
  19227500   262.83802     -351.172       -274.15185     -351.11998      0              8011.6041      45.939297      20.047001      20.857         19208.153      8919.911       6685.4304      8429.471      -840.47278      2844.451      -303.50415    
  19228000   258.30919     -350.30643     -274.61337     -350.25959      0              5436.6956      45.89081       20.047001      20.857         19187.879      4845.8001      7191.8759      4272.4108     -1909.3004     -308.62341     -665.38325    
  19228500   273.67295     -353.52906     -273.33392     -353.47247      0              4697.7708      45.854894      20.047001      20.857         19172.862      7163.1988      3084.7215      3845.3921      1654.1213      1164.286       1117.6352    
  19229000   260.19248     -352.28547     -276.04055     -352.26118      0              6178.0423      45.816887      20.047001      20.857         19156.97       9475.2479      4530.1936      4528.6854     -1062.1713     -381.09728      122.75168    
  19229500   266.13887     -352.15614     -274.16874     -352.06638      0              6531.588       45.624108      20.047001      20.857         19076.366      7163.5707      5805.6525      6625.5408     -98.246952      168.3104      -2955.0075    
  19230000   269.77596     -353.15796     -274.10477     -353.06765      0              7108.6573      45.781091      20.047001      20.857         19142.003      8549.6919      6910.4192      5865.8607      605.93876     -699.90998     -280.8666     
  19230500   262.3269      -349.24453     -272.37416     -349.15322      0              5605.7492      45.790917      20.047001      20.857         19146.112      5561.6392      5443.7536      5811.8547     -1272.1227      324.84314     -33.313275    
  19231000   267.05331     -348.18367     -269.9283      -348.10723      0              5245.0486      45.965045      20.047001      20.857         19218.918      4537.1246      6437.0217      4760.9996      1409.7668      503.30541     -1321.8907    
  19231500   271.04574     -352.37221     -272.94693     -352.30503      0              6494.0637      46.031961      20.047001      20.857         19246.897      5766.7388      7516.9082      6198.544       1131.4934     -3.8021502     -194.52419    
  19232000   269.44941     -350.85235     -271.89485     -350.76981      0              6814.4954      45.786459      20.047001      20.857         19144.248      6799.1884      7039.9722      6604.3257     -433.90415      411.36811      509.42889    
  19232500   270.151       -355.59904     -276.43595     -355.5081       0              4481.7928      45.685888      20.047001      20.857         19102.197      7317.6888      2237.2662      3890.4234      807.80382     -112.27077     -1082.8672    
  19233000   269.31798     -352.84583     -273.92684     -352.79351      0              4770.7936      46.059944      20.047001      20.857         19258.598      4529.668       5867.9333      3914.7794     -705.76003      720.62397      716.10616    
  19233500   260.99533     -352.09797     -275.6178      -352.0179       0              7038.7651      46.00228       20.047001      20.857         19234.487      6045.9052      8508.1289      6562.261      -236.14273      1661.8918     -1694.6067    
  19234000   264.21259     -353.44814     -276.0252      -353.36882      0              7181.6723      45.639618      20.047001      20.857         19082.851      6204.6086      7453.5398      7886.8685     -742.37237      238.60593      382.72327    
  19234500   264.97035     -352.126       -274.48101     -352.03075      0              4070.2094      45.42768       20.047001      20.857         18994.235      4440.6773      5424.3813      2345.5697      566.45623      838.07531      124.29122    
  19235000   264.07516     -352.68836     -275.30569     -352.65249      0              3423.7331      45.887022      20.047001      20.857         19186.295      3223.3726      2145.5016      4902.3249     -1058.2176      413.72754     -138.93763    
  19235500   265.42178     -351.63736     -273.86009     -351.59062      0              4256.7178      46.079865      20.047001      20.857         19266.927      5252.5134      2108.2644      5409.3756     -508.3713      -1958.9741      724.76145    
  19236000   267.65105     -353.83266     -275.40214     -353.77101      0              7872.1312      45.717962      20.047001      20.857         19115.608      6006.7229      9425.3344      8184.3362     -408.62937     -141.79319      145.91026    
  19236500   265.27595     -351.0212      -273.28666     -350.93392      0              5022.6989      45.673589      20.047001      20.857         19097.055      5059.5394      2442.2005      7566.3567     -350.05894     -1724.8701     -2395.8978    
  19237000   261.59853     -354.63103     -277.97409     -354.54143      0              5000.9954      45.719797      20.047001      20.857         19116.375      7038.7964      3129.4202      4834.7697     -1469.6539      608.22272     -678.65444    
  19237500   256.40027     -353.52678     -278.39311     -353.44829      0              3495.5286      45.761063      20.047001      20.857         19133.629      2409.0872      3739.3127      4338.1859     -1149.5214      1536.1117      698.56322    
  19238000   261.78615     -352.3822      -275.67028     -352.33864      0              7109.0644      45.922618      20.047001      20.857         19201.179      5146.2223      8734.4126      7446.5583     -449.81908      427.06841     -1000.8892    
  19238500   270.21775     -352.70327     -273.52062     -352.65947      0              4406.3729      45.852386      20.047001      20.857         19171.813      3422.3748      4144.9995      5651.7446     -948.71123      1692.5594      30.821931    
  19239000   270.39041     -350.9984      -271.76516     -350.95838      0              2632.6913      45.728614      20.047001      20.857         19120.062      5178.061       1134.2782      1585.7346     -2070.9449      1610.7232      47.02013     
  19239500   266.54794     -351.28222     -273.17494     -351.20618      0              5208.0257      45.683412      20.047001      20.857         19101.162      5332.6308      6220.7812      4070.6651      838.40342      174.85624     -428.87234    
  19240000   268.77071     -353.70307     -274.94444     -353.63084      0              4589.3359      45.669681      20.047001      20.857         19095.421      4285.5154      5344.0784      4138.4137     -1884.652       1812.6309     -634.03545    
  19240500   268.72899     -351.84679     -273.1004      -351.75816      0              6406.4258      45.75591       20.047001      20.857         19131.475      5690.3238      6471.6198      7057.3336     -650.19975     -1267.3556      413.94425    
  19241000   260.93043     -353.59394     -277.13278     -353.55559      0              4727.1891      45.850392      20.047001      20.857         19170.98       3864.7275      3977.5014      6339.3382     -833.09327     -618.61398      804.9089     
  19241500   266.00141     -353.01557     -275.06845     -352.92474      0              6929.1825      45.566165      20.047001      20.857         19052.138      7200.6619      4268.8909      9317.9945      373.93116      1372.609      -2089.4562    
  19242000   260.2972      -350.72531     -274.44971     -350.6361       0              5698.1189      45.621975      20.047001      20.857         19075.474      4971.8596      6576.7427      5545.7545      891.23424     -199.1103      -568.61499    
  19242500   263.08955     -351.58014     -274.48628     -351.52117      0              5095.3522      45.928834      20.047001      20.857         19203.778      4798.2769      5087.4465      5400.3332      317.21874      1030.5167     -1384.1364    
  19243000   265.49673     -351.87432     -274.07508     -351.79047      0              4550.7207      45.950452      20.047001      20.857         19212.817      4712.2441      5333.1416      3606.7764     -1050.1099     -17.85879       964.69215    
  19243500   268.17392     -349.88588     -271.30214     -349.81651      0              4009.576       46.080515      20.047001      20.857         19267.199      1424.1647      5151.4504      5453.113       204.1571      -1952.8439      131.67963    
  19244000   264.52405     -350.48931     -272.9751      -350.41989      0              4874.05        45.817722      20.047001      20.857         19157.32       5614.381       3583.2717      5424.4973     -1053.8684      586.91077      262.68248    
  19244500   259.16076     -350.86761     -274.92502     -350.79416      0              3415.1854      45.784213      20.047001      20.857         19143.309      5517.3288      1877.8734      2850.3539      695.75791     -19.368187      995.03777    
  19245000   256.6672      -354.07677     -278.86488     -353.99551      0              3457.0824      45.938044      20.047001      20.857         19207.629      4391.9901      2123.1213      3856.1358     -406.34341     -409.96315      229.48261    
  19245500   261.57432     -351.169       -274.51915     -351.10576      0              5545.0664      45.833664      20.047001      20.857         19163.985      6877.7519      5011.1349      4746.3124     -151.53718      587.90625     -88.808514    
  19246000   267.2656      -351.96886     -273.65129     -351.91131      0              4065.9925      45.752174      20.047001      20.857         19129.913      5628.5785      2764.4635      3804.9354      509.01085      347.54376      886.59878    
  19246500   271.50714     -351.94866     -272.38818     -351.91297      0              4008.8312      45.745658      20.047001      20.857         19127.188      6607.1095      2287.6201      3131.7642     -509.33434      428.52356      167.0915     
  19247000   259.06539     -350.91392     -274.99927     -350.82496      0              4824.0097      45.792186      20.047001      20.857         19146.642      5147.6674      4560.0335      4764.3282      1247.2095      28.105951      937.39098    
  19247500   267.61481     -353.56787     -275.14797     -353.5112       0              4751.1216      45.862929      20.047001      20.857         19176.222      5101.0467      4260.5854      4891.7326     -938.98007      1453.5034     -177.35888    
  19248000   264.80074     -352.73379     -275.1385      -352.6455       0              3441.3011      45.895105      20.047001      20.857         19189.675      3946.2539      3987.3529      2390.2965      1087.8875     -542.27513     -1778.2802    
  19248500   265.48825     -350.75666     -272.95991     -350.70045      0              6517.6392      46.020598      20.047001      20.857         19242.146      5994.0033      6125.5976      7433.3167      345.72128     -1037.2411      1874.7212    
  19249000   265.11364     -351.20484     -273.51787     -351.15359      0              6174.8855      46.034366      20.047001      20.857         19247.903      5719.0398      8733.7931      4071.8235     -27.712708     -122.81972     -1563.2809    
  19249500   271.63296     -351.94983     -272.35248     -351.86251      0              6273.6825      45.807051      20.047001      20.857         19152.858      6877.8741      5716.9176      6226.2557      877.33021     -558.80668      378.61641    
  19250000   267.16246     -350.67993     -272.39259     -350.60467      0              5772.1404      45.697614      20.047001      20.857         19107.1        4271.4116      7036.7232      6008.2864      749.00277     -1501.298      -349.64108    
  19250500   267.87829     -351.60004     -273.10293     -351.50413      0              6886.5731      45.811776      20.047001      20.857         19154.833      5764.1748      7524.4718      7371.0726     -43.961788     -1378.5003     -1283.2825    
  19251000   268.54199     -352.32927     -273.63768     -352.25571      0              3218.5036      45.704462      20.047001      20.857         19109.963      3922.2259      1648.0088      4085.2761      580.25283      483.11329      690.59448    
  19251500   265.72505     -352.03292     -274.16678     -351.94405      0              4334.8168      45.490706      20.047001      20.857         19020.587      6181.2131      5118.3826      1704.8546     -940.84843     -897.32157     -319.5258     
  19252000   262.13209     -352.29353     -275.48025     -352.20421      0              3809.5684      45.969813      20.047001      20.857         19220.912      4228.7585      4995.3308      2204.616       911.73365      1602.5954      4.6463893    
[...]
  22065500   265.86338     -351.25194     -273.34526     -351.20177      0              7156.0025      45.782903      20.047001      20.857         19142.761      7981.2641      6048.0345      7438.7088     -744.93203     -1699.9735     -840.08336    
  22066000   263.65449     -350.0637      -272.80431     -350.04106      0              6565.6736      45.782459      20.047001      20.857         19142.575      7867.3257      4249.3476      7580.3476     -90.103428     -1815.3426     -1026.0226    
  22066500   268.09139     -351.40863     -272.84907     -351.38483      0              5272.8699      46.063308      20.047001      20.857         19260.004      5067.2628      4856.8589      5894.4879     -448.73202      1058.7274      369.35453    
  22067000   265.24224     -352.11634     -274.39168     -352.08611      0              6431.4657      45.765308      20.047001      20.857         19135.404      6272.3785      3992.2819      9029.7368     -740.97026     -2269.232       489.53741    
  22067500   274.74577     -349.64838     -269.13887     -349.60412      0              7895.9948      45.704586      20.047001      20.857         19110.015      10090.444      7032.145       6565.3953     -439.55966      484.92139     -2648.4492    
  22068000   269.0442      -348.29273     -269.45397     -348.2582       0              2906.4399      46.192149      20.047001      20.857         19313.875      2308.4551      1787.4985      4623.3663      41.608821     -140.42173      490.66237    
  22068500   271.75648     -348.99253     -269.35898     -348.96536      0              5089.0953      46.153541      20.047001      20.857         19297.732      7279.5013      2984.8632      5002.9214      169.16724      764.06205     -1269.8054    
  22069000   261.97069     -349.70471     -272.93872     -349.72404      0              5976.3071      45.831673      20.047001      20.857         19163.153      6760.6412      5936.8994      5231.3808     -630.90134      1869.1973      1259.0391    
  22069500   269.35873     -350.42404     -271.49312     -350.40554      0              5754.558       46.014265      20.047001      20.857         19239.498      4329.6881      5102.381       7831.6049     -874.25517      97.672166     -662.38105    
  22070000   266.92465     -349.26816     -271.05049     -349.2387       0              5710.2766      46.138256      20.047001      20.857         19291.341      5342.5705      5154.3822      6633.877      -214.09133      720.99421      1320.0026    
  22070500   264.14978     -351.51985     -274.11531     -351.4903       0              6979.9844      45.906653      20.047001      20.857         19194.503      6020.01        6330.4432      8589.5        -128.87745      840.81874      27.479869    
  22071000   261.50774     -350.56858     -273.93824     -350.56919      0              3989.2756      45.898939      20.047001      20.857         19191.278      5697.0913      2703.056       3567.6795      701.87369      814.39061      465.94066    
  22071500   265.83299     -350.45765     -272.55988     -350.41224      0              2680.3657      45.709447      20.047001      20.857         19112.048      2651.9255      2496.6949      2892.4768      408.34556      1140.0839     -1175.547     
  22072000   266.87729     -349.24881     -271.04502     -349.20016      0              6858.6748      45.88789       20.047001      20.857         19186.658      8269.2572      4636.1239      7670.6432     -137.93679     -1527.4807     -981.43843    
  22072500   272.4855      -349.86203     -270.01486     -349.8236       0              2944.3354      45.974211      20.047001      20.857         19222.751      2463.1173      684.91471      5684.9743      133.83073      2165.8884      675.84697    
  22073000   273.97028     -350.81529     -270.53303     -350.79625      0              7416.7486      45.926039      20.047001      20.857         19202.609      8150.3018      4508.6198      9591.3243     -1574.8963      481.545        1387.9378    
  22073500   268.10594     -348.69682     -270.133       -348.67597      0              5425.4201      45.902109      20.047001      20.857         19192.604      6479.6984      3474.0826      6322.4793      370.38693      1019.0873     -1305.5496    
  22074000   266.90522     -347.95403     -269.74206     -347.91244      0              6323.1137      45.808173      20.047001      20.857         19153.327      7876.0851      4915.8425      6177.4135     -286.75161     -1403.86       -895.91691    
  22074500   264.643       -348.39043     -270.84136     -348.37606      0              6449.9881      45.76233       20.047001      20.857         19134.159      8813.941       4408.7008      6127.3225      589.1189       1414.6758      1966.6643    
  22075000   264.82453     -349.52073     -271.91847     -349.51115      0              6292.8127      45.904366      20.047001      20.857         19193.547      6330.4559      8200.4181      4347.5639      218.85085      1241.2613     -1160.9629    
  22075500   256.54675     -348.17427     -272.99767     -348.12191      0              8783.5598      45.717879      20.047001      20.857         19115.573      10223.556      7191.4832      8935.64       -1496.4137     -388.85073      449.50059    
  22076000   263.07914     -350.82159     -273.73079     -350.77056      0              7092.9055      45.492482      20.047001      20.857         19021.33       7958.5353      7512.8022      5807.379      -460.79792     -16.868879     -82.178878    
  22076500   272.61822     -352.6807      -272.79463     -352.63825      0              5921.8259      45.650256      20.047001      20.857         19087.299      6145.3388      6803.5962      4816.5428     -619.92424     -231.71268     -4.4881342    
  22077000   274.00016     -351.32247     -271.03145     -351.27134      0              4731.919       45.947951      20.047001      20.857         19211.771      5924.4272      4449.0878      3822.2421     -344.90043     -660.77977      90.972961    
  22077500   260.49034     -349.81998     -273.48779     -349.83251      0              5902.3005      46.154309      20.047001      20.857         19298.053      6771.8137      3992.5593      6942.5283     -189.82656      854.30849      494.46984    
  22078000   261.1602      -347.71887     -271.19038     -347.74264      0              4109.5441      46.02422       20.047001      20.857         19243.661      5066.6987      3768.3373      3493.5963     -857.30325      665.14609     -1.3091851    
  22078500   265.43966     -348.7765      -270.99398     -348.79039      0              5867.8075      45.857113      20.047001      20.857         19173.79       7189.0686      3593.2637      6821.0904      559.21779     -846.18597     -49.15987     
  22079000   257.13433     -346.4639      -271.11512     -346.5008       0              6256.5505      46.035496      20.047001      20.857         19248.376      5484.2139      6680.5275      6604.9101     -226.34839     -312.26536      1564.9944    
  22079500   268.68369     -350.46281     -271.72969     -350.43837      0              5551.2983      46.148338      20.047001      20.857         19295.557      6547.6704      5556.7716      4549.4531      380.45619     -625.03451     -531.2713     
  22080000   265.7324      -349.72647     -271.85817     -349.7196       0              4192.9031      46.018025      20.047001      20.857         19241.07       3378.7171      6360.4381      2839.5541     -261.05481     -2383.6058     -795.38394    
  22080500   264.52121     -348.52252     -271.00915     -348.47568      0              5978.1619      45.742328      20.047001      20.857         19125.796      7202.3382      4546.1216      6186.0259     -1898.034      -2132.7461      1628.0542    
  22081000   262.83268     -346.47851     -269.45993     -346.45014      0              6584.9813      45.632294      20.047001      20.857         19079.788      6680.5847      6387.2479      6687.1112      502.30933     -1160.6205     -429.58893    
  22081500   267.44055     -346.7642      -268.39536     -346.74433      0              6201.7621      45.823157      20.047001      20.857         19159.592      7268.9116      3598.1873      7738.1876     -145.30441     -829.53052      182.68526    
  22082000   270.91832     -351.04509     -271.65715     -351.00511      0              3609.0218      46.347792      20.047001      20.857         19378.953      5248.2144      2486.4145      3092.4367      288.64607     -1011.0921     -411.68485    
  22082500   273.60479     -350.44278     -270.26762     -350.43411      0              5141.8897      46.377395      20.047001      20.857         19391.33       5178.5433      5429.6714      4817.4544     -119.29337     -1817.7604     -1534.5308    
  22083000   256.17264     -349.30596     -274.23898     -349.32385      0              5622.5304      45.942783      20.047001      20.857         19209.61       7105.358       3975.8618      5786.3714      268.4086       153.91078      830.72247    
  22083500   263.48135     -346.37476     -269.16609     -346.38091      0              8062.9026      45.764935      20.047001      20.857         19135.248      9147.6173      7536.956       7504.1345      1034.4831      411.85061     -1235.6165    
  22084000   268.43635     -349.27193     -270.61129     -349.27579      0              6372.4551      45.939341      20.047001      20.857         19208.171      5403.7834      7616.1514      6097.4305      847.84935     -1343.1879      247.32134    
  22084500   272.42413     -351.62527     -271.79608     -351.59873      0              5884.6924      45.944206      20.047001      20.857         19210.205      4458.5507      5519.6191      7675.9073     -412.057       -1058.6314     -2300.6914    
  22085000   268.05021     -350.03348     -271.48599     -350.03204      0              4955.489       45.932174      20.047001      20.857         19205.174      6006.5107      4026.6755      4833.2809     -881.63859      114.34499     -387.29763    
  22085500   262.94884     -349.9544      -272.90178     -349.96775      0              6740.978       46.047362      20.047001      20.857         19253.337      7314.951       6980.9235      5927.0594     -67.124549      450.37285      2692.6094    
  22086000   268.10895     -346.8518      -268.28709     -346.82927      0              5020.2965      45.800508      20.047001      20.857         19150.122      6208.3525      2461.4045      6391.1325     -1243.4116     -542.35015     -50.326954    
  22086500   259.62074     -347.29344     -271.21606     -347.27559      0              6104.7721      45.446224      20.047001      20.857         19001.989      5576.242       7220.2115      5517.8629     -83.498182      449.13423     -2054.4321    
  22087000   265.141       -349.13614     -271.44115     -349.11469      0              5746.7095      45.611588      20.047001      20.857         19071.131      7935.3581      3027.9898      6276.7805      591.28692      1147.3131     -103.57364    
  22087500   271.18802     -349.01775     -269.55077     -349.03281      0              5198.7539      46.012084      20.047001      20.857         19238.586      5057.1818      5956.8574      4582.2224     -629.8612       47.318148      1535.8328    
  22088000   265.1142      -347.89593     -270.20879     -347.89611      0              5239.0581      46.197028      20.047001      20.857         19315.915      4069.8189      6008.2155      5639.14        1208.5174      11.518124      763.2778     
  22088500   267.29407     -349.02334     -270.69743     -348.96748      0              5806.9079      45.822631      20.047001      20.857         19159.372      6855.1176      5436.0956      5129.5105     -280.17802      846.06789     -327.61799    
  22089000   274.09135     -351.01936     -270.70162     -350.99959      0              4514.2186      45.93821       20.047001      20.857         19207.698      3194.938       3149.1163      7198.6016     -760.58971     -1653.5583      569.23087    
  22089500   262.98376     -350.27257     -273.20971     -350.23873      0              4442.1699      45.895449      20.047001      20.857         19189.819      4605.471       4074.0296      4647.0092     -1634.449       971.89114      686.16179    
  22090000   273.3792      -350.36697     -270.25791     -350.31568      0              7338.7346      45.64445       20.047001      20.857         19084.871      9169.0007      6389.8028      6457.4003     -486.08934     -1426.8167      231.89664    
  22090500   260.76019     -348.91679     -272.50552     -348.87037      0              4152.2757      45.683982      20.047001      20.857         19101.4        6131.8735      1923.6378      4401.3159     -788.98969      401.85861     -2061.7391    
  22091000   263.71095     -349.03068     -271.75473     -348.99119      0              5901.5271      45.777288      20.047001      20.857         19140.414      6212.967       5358.6976      6132.9166     -868.65854     -59.679772      31.013267    
  22091500   273.39595     -349.09609     -268.98212     -349.08299      0              7786.962       45.662017      20.047001      20.857         19092.216      8202.7644      7053.1637      8104.9577     -21.188098     -2112.4612      946.77729    
  22092000   261.71832     -348.65757     -271.96553     -348.68663      0              4625.0626      45.867275      20.047001      20.857         19178.039      5091.3938      4051.9532      4731.8407      1329.8241      1105.7939      388.95972    
  22092500   275.98591     -348.4224      -267.54949     -348.38695      0              5165.219       45.768436      20.047001      20.857         19136.712      6358.5864      4544.0078      4593.0628     -443.72772     -696.82101     -22.397177    
  22093000   270.84564     -348.92009     -269.55344     -348.90648      0              8346.5017      45.781019      20.047001      20.857         19141.973      7978.0306      9198.1543      7863.3203     -777.00758      1282.6959     -72.517469    
  22093500   257.06482     -348.99775     -273.66933     -348.98852      0              2479.2393      45.69729       20.047001      20.857         19106.965      3080.7622      2795.1808      1561.775       600.31327      1211.5835     -1635.7448    
  22094000   269.10221     -349.95376     -271.098       -349.90645      0              8924.2396      45.584779      20.047001      20.857         19059.921      10771.645      7699.2398      8301.8342      798.8201      -5.3136126     -440.91888    
  22094500   267.88475     -350.44877     -271.94976     -350.40327      0              2976.5946      45.812215      20.047001      20.857         19155.017      2118.437       2873.5934      3937.7535      682.53718      711.72738     -705.33242    
  22095000   263.28545     -348.83002     -271.67876     -348.80809      0              5835.5716      45.764197      20.047001      20.857         19134.94       4761.4734      6175.0166      6570.2247     -150.35858     -1356.1125     -832.11141    
  22095500   269.7298      -350.96141     -271.92174     -350.91983      0              7124.491       45.574292      20.047001      20.857         19055.537      8321.2481      6166.7267      6885.4981      968.76738      1016.9451     -2249.6658    
  22096000   259.97567     -350.99568     -274.8143      -350.97592      0              3927.9805      45.73941       20.047001      20.857         19124.576      3811.1808      2381.9593      5590.8013      19.722506     -1013.9942     -1539.9895    
  22096500   270.96539     -352.22103     -272.81929     -352.24547      0              4803.697       45.944882      20.047001      20.857         19210.488      3679.1701      4975.4717      5756.4492      418.47322     -232.84568     -278.49486    
  22097000   267.89142     -351.85765     -273.35669     -351.81805      0              7309.0261      45.765302      20.047001      20.857         19135.402      7701.7871      7101.5514      7123.7398     -438.41177     -709.63978     -803.57575    
  22097500   266.86309     -349.77388     -271.57425     -349.73931      0              5218.4548      45.365215      20.047001      20.857         18968.117      7234.5126      5179.9613      3240.8904     -11.138596     -559.50608      856.33598    
  22098000   267.32612     -352.68443     -274.34912     -352.64945      0              7385.1415      45.39765       20.047001      20.857         18981.679      7958.1631      6113.2132      8084.0483      2552.3749     -160.67653      1217.1052    
  22098500   256.85143     -349.39979     -274.13391     -349.35197      0              3606.1632      45.873835      20.047001      20.857         19180.782      4513.4796      3266.3887      3038.6212      153.42272     -905.99369      434.11051    
  22099000   267.88226     -347.92818     -269.42991     -347.91951      0              5453.3931      45.735104      20.047001      20.857         19122.775      4908.4032      5308.0042      6143.7718     -140.88218      262.2334      -1771.0888    
  22099500   259.91154     -350.52186     -274.35927     -350.53519      0              6538.1509      45.598758      20.047001      20.857         19065.766      6716.1848      6069.7877      6828.4803      1136.2098     -1446.9775     -1111.6187    
  22100000   266.34941     -349.01937     -270.97027     -349.05594      0              4784.4299      45.57381       20.047001      20.857         19055.335      4419.658       4890.7199      5042.9116     -370.70008     -507.90887      1074.4821    
  22100500   258.85279     -349.42569     -273.57334     -349.41967      0              5417.3447      45.749094      20.047001      20.857         19128.625      6445.6574      4731.1993      5075.1773     -720.02557     -904.65581     -425.77501    
  22101000   264.66112     -352.65435     -275.09997     -352.68059      0              4358.1293      45.993641      20.047001      20.857         19230.875      4389.4241      3502.6152      5182.3484     -607.66228     -1440.825      -1546.961     
  22101500   264.86597     -350.54605     -272.93165     -350.54037      0              5741.6965      45.729864      20.047001      20.857         19120.584      5283.6514      5109.4632      6831.9749      497.44186     -461.18151      1492.5313    
  22102000   265.90466     -353.17062     -275.25185     -353.18175      0              5288.1581      45.658287      20.047001      20.857         19090.657      4849.2977      4830.8743      6184.3022     -293.82327     -849.55577     -2382.2866    
  22102500   259.78117     -350.12746     -274.00307     -350.17606      0              5907.208       45.851393      20.047001      20.857         19171.398      6475.6995      5141.2838      6104.6408      76.20047      -752.46325     -1280.3375    
  22103000   268.26128     -349.48375     -270.87441     -349.48735      0              4767.7306      45.832436      20.047001      20.857         19163.472      5838.2641      4693.2725      3771.6552     -194.9385      -1368.3358     -446.41485    
  22103500   269.79817     -350.73067     -271.67097     -350.74431      0              6683.4369      45.611361      20.047001      20.857         19071.036      9328.1039      4937.27        5784.9369      813.46327      8.6371715      466.09686    
  22104000   270.00297     -349.63329     -270.51357     -349.62358      0              5887.6814      45.611331      20.047001      20.857         19071.024      5042.4858      7749.7122      4870.8462      405.718       -771.63326     -103.86211    
ERROR on proc 0: Cannot open restart file restart.lmp.0: Permission denied (../write_restart.cpp:233)
Last command: run             40000000 upto
