LAMMPS (23 Jun 2022)
echo both

include		in.partitions
variable        pid world 0
include		in.temp
variable	temperature equal 265.0
variable        tempDamp equal 0.100 # this is 0.1 ps
include		in.pressure
variable        pressure equal 6079.5
variable        pressureDamp equal 1.0 #this is 1ps
include		in.seed
variable        seed world 745823

units           metal
atom_style	full
read_restart	restart.lmp.${pid}
read_restart	restart.lmp.0
Reading restart file ...
  restart file = 23 Jun 2022, LAMMPS = 23 Jun 2022
  restoring atom style full from restart
  orthogonal box = (0.63625297 0 0) to (46.814446 20.047001 20.857)
  4 by 1 by 1 MPI processor grid
Summary of lammps deepmd module ...
  >>> Info of deepmd-kit:
  installed to:       /u/sigbjobo/software/DEEPMD_FROM_SOURCE/deepmd-kit/install
  source:             v2.1.3
  source branch:       master
  source commit:      5a32c49
  source commit at:   2022-07-01 09:52:58 +0800
  surpport model ver.:1.1 
  build float prec:   double
  build with tf inc:  /u/sigbjobo/software/DEEPMD_FROM_SOURCE/tensorflow/install/include;/u/sigbjobo/software/DEEPMD_FROM_SOURCE/tensorflow/install/include
  build with tf lib:  /u/sigbjobo/software/DEEPMD_FROM_SOURCE/tensorflow/install/lib/libtensorflow_cc.so;/u/sigbjobo/software/DEEPMD_FROM_SOURCE/tensorflow/install/lib/libtensorflow_framework.so
  set tf intra_op_parallelism_threads: 0
  set tf inter_op_parallelism_threads: 0
  >>> Info of lammps module:
  use deepmd-kit at:  /u/sigbjobo/software/DEEPMD_FROM_SOURCE/deepmd-kit/install
  source:             v2.1.3
  source branch:      master
  source commit:      5a32c49
  source commit at:   2022-07-01 09:52:58 +0800
  build float prec:   double
  build with tf inc:  /u/sigbjobo/software/DEEPMD_FROM_SOURCE/tensorflow/install/include;/u/sigbjobo/software/DEEPMD_FROM_SOURCE/tensorflow/install/include
  build with tf lib:  /u/sigbjobo/software/DEEPMD_FROM_SOURCE/tensorflow/install/lib/libtensorflow_cc.so;/u/sigbjobo/software/DEEPMD_FROM_SOURCE/tensorflow/install/lib/libtensorflow_framework.so
  restoring pair style deepmd from restart
  2268 atoms
Finding 1-2 1-3 1-4 neighbors ...
  special bond factors lj:    0        0        0       
  special bond factors coul:  0        0        0       
     0 = max # of 1-2 neighbors
     0 = max # of 1-3 neighbors
     0 = max # of 1-4 neighbors
     1 = max # of special neighbors
  special bonds CPU = 0.000 seconds
  read_restart CPU = 0.009 seconds
include 	in.setup
variable	out_freq equal 500
variable	out_freq2 equal 1000
variable	out_freq3 equal 5000

timestep        0.0005

neigh_modify    delay 7 every 1

include         in.deepmd
# This is deepMD model

# create groups ###
#group ox type 2
#group hy type 1

mass 2 15.999
mass 1 1.008

pair_style      deepmd ../graph.pb
pair_coeff      * *

bond_style      none
angle_style     none
dihedral_style  none
improper_style  none
neigh_modify exclude none


neighbor        2.0 bin
neigh_modify    every 10 delay 0 check no

thermo          ${out_freq}
thermo          500
thermo_style 	custom step temp pe etotal epair emol press lx ly lz vol pxx pyy pzz pxy pxz pyz
#thermo_modify	flush yes
restart 	${out_freq} restart.lmp.${pid} restart2.lmp.${pid}
restart 	500 restart.lmp.${pid} restart2.lmp.${pid}
restart 	500 restart.lmp.0 restart2.lmp.${pid}
restart 	500 restart.lmp.0 restart2.lmp.0

include		in.dump
dump            myDump all atom ${out_freq3} dump.water.${pid}
dump            myDump all atom 5000 dump.water.${pid}
dump            myDump all atom 5000 dump.water.0
dump            myDump2 all dcd ${out_freq2} dump.dcd.${pid}
dump            myDump2 all dcd 1000 dump.dcd.${pid}
dump            myDump2 all dcd 1000 dump.dcd.0
dump_modify     myDump append yes
dump_modify     myDump2 append yes


timer           timeout 23:50:00 every 1000
New timer settings: style=normal  mode=nosync  timeout=23:50:00

fix             1 all plumed plumedfile plumed.dat outfile plumed.out
fix             3 all nph x ${pressure} ${pressure} ${pressureDamp}
fix             3 all nph x 6079.5 ${pressure} ${pressureDamp}
fix             3 all nph x 6079.5 6079.5 ${pressureDamp}
fix             3 all nph x 6079.5 6079.5 1
Resetting global fix info from restart file:
  fix style: nph, fix ID: 3
fix             4 all temp/csvr ${temperature} ${temperature} ${tempDamp} ${seed}
fix             4 all temp/csvr 265 ${temperature} ${tempDamp} ${seed}
fix             4 all temp/csvr 265 265 ${tempDamp} ${seed}
fix             4 all temp/csvr 265 265 0.1 ${seed}
fix             4 all temp/csvr 265 265 0.1 745823
Resetting global fix info from restart file:
  fix style: temp/csvr, fix ID: 4

run             40000000 upto

CITE-CITE-CITE-CITE-CITE-CITE-CITE-CITE-CITE-CITE-CITE-CITE-CITE

Your simulation uses code contributions which should be cited:

- USER-DEEPMD package:

@article{Wang_ComputPhysCommun_2018_v228_p178,
  author = {Wang, Han and Zhang, Linfeng and Han, Jiequn and E, Weinan},
  doi = {10.1016/j.cpc.2018.03.016},
  url = {https://doi.org/10.1016/j.cpc.2018.03.016},
  year = 2018,
  month = {jul},
  publisher = {Elsevier {BV}},
  volume = 228,
  journal = {Comput. Phys. Commun.},
  title = {{DeePMD-kit: A deep learning package for many-body potential energy representation and molecular dynamics}},
  pages = {178--184}
}

CITE-CITE-CITE-CITE-CITE-CITE-CITE-CITE-CITE-CITE-CITE-CITE-CITE

Generated 0 of 1 mixed pair_coeff terms from geometric mixing rule
All restart file global fix info was re-assigned
Neighbor list info ...
  update every 10 steps, delay 0 steps, check no
  max neighbors/atom: 2000, page size: 100000
  master list distance cutoff = 8
  ghost atom cutoff = 8
  binsize = 4, bins = 12 6 6
  1 neighbor lists, perpetual/occasional/extra = 1 0 0
  (1) pair deepmd, perpetual
      attributes: full, newton on
      pair build: full/bin
      stencil: full/bin/3d
      bin: standard
Per MPI rank memory allocation (min/avg/max) = 6.146 | 6.15 | 6.154 Mbytes
   Step          Temp          PotEng         TotEng         E_pair         E_mol          Press            Lx             Ly             Lz           Volume          Pxx            Pyy            Pzz            Pxy            Pxz            Pyz      
  27436500   266.47295     -353.34335     -275.25805     -353.34335      0              5660.7748      46.178193      20.047001      20.857         19308.04       6748.1595      3975.7114      6258.4533     -958.21586     -2367.1035      152.78367    
  27437000   257.13054     -351.49028     -276.14261     -351.45894      0              3698.0316      45.872885      20.047001      20.857         19180.385      2515.1649      5171.1982      3407.7317     -132.84384      1327.6687     -780.06474    
  27437500   262.10929     -348.59152     -271.78491     -348.59822      0              5390.0574      45.325744      20.047001      20.857         18951.614      7999.7024      4348.1461      3822.3236     -1252.5345     -914.80881     -62.615432    
  27438000   265.8179      -348.12448     -270.23113     -348.12403      0              6644.0028      45.579342      20.047001      20.857         19057.648      6613.7554      6968.7973      6349.4556      1209.1441      758.45736      601.65531    
  27438500   269.67107     -350.60102     -271.57856     -350.62189      0              5172.6702      46.205412      20.047001      20.857         19319.421      6772.0358      2470.986       6274.9888     -1062.608      -278.33067     -980.01678    
  27439000   269.83743     -350.05971     -270.98851     -350.08642      0              3926.9247      46.163028      20.047001      20.857         19301.699      2916.6515      2813.4196      6050.7031     -44.405243     -1093.8248     -1168.1605    
  27439500   259.05787     -347.55468     -271.64224     -347.58795      0              6408.384       45.741801      20.047001      20.857         19125.576      9823.0577      2817.1089      6584.9855      62.579094     -169.45281     -170.90575    
  27440000   263.81367     -349.48018     -272.17414     -349.5022       0              5946.2615      45.724338      20.047001      20.857         19118.274      6103.6534      6759.8697      4975.2614     -447.35568     -319.37502     -825.36573    
  27440500   260.65697     -348.12237     -271.74135     -348.14925      0              5520.1438      45.757612      20.047001      20.857         19132.186      8963.2574      4524.2199      3072.954       1172.1186      375.0297       78.596751    
  27441000   266.67754     -348.7409      -270.59565     -348.73392      0              4532.6746      45.902945      20.047001      20.857         19192.953      6129.0342      2515.1692      4953.8203      504.00285     -524.26789      323.85023    
  27441500   271.12702     -352.53326     -273.08416     -352.54121      0              6102.649       45.925831      20.047001      20.857         19202.522      8312.1425      5792.0549      4203.7496      1237.1826      927.47654      586.22283    
  27442000   267.99611     -349.88492     -271.35328     -349.84726      0              4653.4132      45.864383      20.047001      20.857         19176.829      6366.2228      2286.7304      5307.2863     -1637.987       84.600915      1878.1636    
  27442500   275.10483     -348.64801     -268.03328     -348.6099       0              6159.4255      45.861257      20.047001      20.857         19175.522      4799.4912      7303.5544      6375.231       180.58874      614.9263      -513.19095    
  27443000   265.80207     -351.70289     -273.81418     -351.70211      0              3239.5507      45.726146      20.047001      20.857         19119.03       3552.2757      4224.9379      1941.4387     -1112.3523      334.56292      297.32374    
  27443500   261.69919     -350.58063     -273.89419     -350.56781      0              6005.5625      45.612669      20.047001      20.857         19071.583      7615.013       4965.9334      5435.7411      216.05464      1089.5627     -716.15371    
  27444000   269.8307      -351.6294      -272.56017     -351.58128      0              6700.1393      45.860335      20.047001      20.857         19175.137      8842.1962      5386.0187      5872.2029     -681.37121      1859.4988     -223.93375    
  27444500   273.83075     -351.3143      -271.07292     -351.30386      0              5906.8711      45.794294      20.047001      20.857         19147.524      5534.0341      5560.4309      6626.1484     -220.98887      1052.6402     -471.60379    
  27445000   265.52179     -351.33991     -273.53333     -351.33505      0              3323.3857      45.660083      20.047001      20.857         19091.408      6240.0361      1460.799       2269.3219      484.21111     -354.21185     -988.11773    
  27445500   266.35742     -349.94954     -271.89809     -349.96481      0              4704.6458      45.507328      20.047001      20.857         19027.538      4292.2051      6209.8031      3611.9292      475.15307      2135.4264     -438.47433    
  27446000   260.87628     -353.95271     -277.50741     -353.95065      0              8606.7339      45.30386       20.047001      20.857         18942.463      10180.704      8972.2986      6667.1988     -357.60508     -1043.8769      36.734929    
  27446500   256.50003     -354.23554     -279.07263     -354.21589      0              3680.245       45.721117      20.047001      20.857         19116.927      3561.4925      3270.4168      4208.8256     -1628.653      -778.77631      173.44209    
  27447000   257.53856     -353.40733     -277.9401      -353.38994      0              4979.3862      45.929964      20.047001      20.857         19204.25       4523.766       5779.9108      4634.4819      2062.6504     -500.35056      2081.2439    
  27447500   260.84585     -350.54992     -274.11354     -350.54523      0              5347.7123      45.659172      20.047001      20.857         19091.027      4068.3332      8484.8115      3489.9922     -484.63556     -803.17116     -154.1128     
  27448000   270.28671     -349.29354     -270.09068     -349.27303      0              5669.0979      45.244549      20.047001      20.857         18917.664      8128.8176      5394.2634      3484.2128      389.05082     -257.4906      -1937.5832    
  27448500   267.08517     -350.59276     -272.32806     -350.57654      0              7842.1722      45.539608      20.047001      20.857         19041.034      7865.3819      8087.4122      7573.7223      1416.3905      411.79577      33.271458    
  27449000   262.40734     -351.21311     -274.31916     -351.22151      0              4513.2689      46.008539      20.047001      20.857         19237.104      6085.4492      2109.6388      5344.7187      464.86623     -756.23322     -1177.5764    
  27449500   268.7322      -350.15458     -271.40724     -350.15376      0              4369.3081      45.701171      20.047001      20.857         19108.587      6992.7452      2430.493       3684.686      -741.68944      1660.1704     -342.28753    
  27450000   258.78885     -349.04636     -273.21275     -349.02804      0              4387.7489      45.544518      20.047001      20.857         19043.087      4957.5752      2799.305       5406.3664      1870.7281      342.67372      48.003092    
  27450500   260.80711     -351.77928     -275.35425     -351.75227      0              6876.8445      45.688532      20.047001      20.857         19103.303      7347.9362      6778.4568      6504.1404      258.07682     -2080.8159     -18.888139    
  27451000   260.74826     -351.02657     -274.61879     -351.01156      0              4228.3413      45.892274      20.047001      20.857         19188.491      4774.8976      4608.5325      3301.5938     -157.60745      865.76941      533.56339    
  27451500   261.86232     -347.14084     -270.4066      -347.13139      0              6219.3614      45.650687      20.047001      20.857         19087.479      5306.7817      6252.2646      7099.0379      137.47573     -400.86136     -1179.2103    
  27452000   272.59547     -351.0063      -271.1269      -351.02894      0              7950.6161      45.493994      20.047001      20.857         19021.963      10244.633      7694.1416      5913.0741      256.30291     -1499.9991      102.12999    
  27452500   265.67833     -348.70466     -270.85221     -348.70432      0              5821.8219      45.798921      20.047001      20.857         19149.459      5787.5299      6352.2525      5325.6835      661.21932      449.21494      1236.1959    
  27453000   263.24778     -348.50544     -271.36522     -348.49297      0              4397.6798      45.669357      20.047001      20.857         19095.285      5519.8886      2850.0527      4823.0982      360.83281      331.76803      1832.5812    
  27453500   267.86513     -345.695       -267.20175     -345.69882      0              6917.1122      45.373613      20.047001      20.857         18971.629      7329.8789      7565.1046      5856.3531     -613.29492      565.44571      275.75882    
  27454000   265.71502     -349.4421      -271.5789      -349.41247      0              6194.8008      45.414675      20.047001      20.857         18988.797      6007.802       6606.7311      5969.8693     -1699.7514      408.58214      3131.2072    
  27454500   271.01374     -347.53491     -268.11901     -347.51436      0              5510.8956      45.604695      20.047001      20.857         19068.249      7806.6054      3940.2672      4785.8143     -76.798347      772.671       -749.07475    
  27455000   264.90332     -350.4079      -272.78255     -350.43611      0              5058.7205      45.82669       20.047001      20.857         19161.07       2984.6806      5971.5156      6219.9652     -91.677843      65.561299     -386.08651    
  27455500   261.50559     -349.50351     -272.87381     -349.47998      0              7289.8529      45.709249      20.047001      20.857         19111.965      7318.3929      7861.3642      6689.8016      25.957384      1039.6288     -529.98398    
  27456000   259.55803     -348.28979     -272.23079     -348.28386      0              4626.6019      45.472294      20.047001      20.857         19012.889      5886.337       4735.1677      3258.3008      421.94239     -2068.0367      1798.884     
  27456500   263.56172     -348.95299     -271.72078     -348.95784      0              9545.712       45.507532      20.047001      20.857         19027.623      8084.5429      11097.349      9455.2439      214.45496      1644.7444     -1104.6566    
  27457000   262.32639     -349.66728     -272.79705     -349.67019      0              3478.851       45.833988      20.047001      20.857         19164.121      3287.854       3139.3936      4009.3055      469.13174      671.05624     -1469.3742    
  27457500   262.87496     -349.61306     -272.58209     -349.59265      0              5447.6219      45.655748      20.047001      20.857         19089.595      7124.019       5255.1545      3963.6921     -2204.3436      1051.8187      942.93869    
  27458000   268.38851     -351.42394     -272.77732     -351.41005      0              5582.3664      45.486187      20.047001      20.857         19018.698      6817.5957      5125.1442      4804.3592      159.18613      1394.8648     -2282.1539    
  27458500   265.40963     -346.7657      -268.99199     -346.76652      0              5091.5631      45.570331      20.047001      20.857         19053.88       6769.1908      5522.5436      2982.955       318.42743     -1600.2785      1112.8559    
  27459000   267.78637     -346.10997     -267.63979     -346.14456      0              4907.6198      45.895132      20.047001      20.857         19189.686      5861.7019      4535.4223      4325.7354      722.37376      2644.5997     -1443.7254    
  27459500   276.16486     -347.72997     -266.80462     -347.72361      0              6378.1964      45.837509      20.047001      20.857         19165.593      8462.8946      3516.6267      7155.0679     -399.07911      477.85529     -629.41979    
  27460000   255.62419     -347.00722     -272.10096     -346.9971       0              5024.9744      45.688019      20.047001      20.857         19103.088      6689.4576      4590.5411      3794.9245     -1573.2966      1658.2967     -137.73671    
  27460500   255.35983     -347.51381     -272.68502     -347.5465       0              4890.0752      45.586617      20.047001      20.857         19060.69       3082.7415      6093.8827      5493.6014     -780.26319     -2128.3911     -428.03902    
  27461000   271.71829     -349.66147     -270.03911     -349.62491      0              5257.3459      45.654035      20.047001      20.857         19088.879      8396.1715      4128.5245      3247.3417     -1891.6765     -1059.1696     -1199.9125    
  27461500   269.06361     -347.18477     -268.34032     -347.20229      0              6300.8552      45.7384        20.047001      20.857         19124.153      8028.0068      4581.4569      6293.1019     -1540.2673      300.36249     -1099.1856    
  27462000   267.71275     -347.68889     -269.24029     -347.68068      0              5161.7714      45.742485      20.047001      20.857         19125.862      6684.2533      5731.558       3069.5028     -893.43353     -878.4286      -1237.1463    
  27462500   263.65394     -346.16714     -268.9079      -346.19802      0              6208.4447      45.587009      20.047001      20.857         19060.854      6468.3986      5870.3861      6286.5494     -471.6899       577.95144      575.09573    
  27463000   261.96335     -348.54858     -271.78474     -348.54524      0              6853.0855      45.663267      20.047001      20.857         19092.739      8654.7567      7034.1752      4870.3246      987.18666     -1395.1087     -436.8755     
  27463500   270.53248     -352.84899     -273.57411     -352.82704      0              3676.218       45.921401      20.047001      20.857         19200.67       5587.8792      677.849        4762.9257     -1322.5238     -220.45116      1169.4001    
  27464000   266.8433      -349.75359     -271.55977     -349.76962      0              6218           45.776216      20.047001      20.857         19139.965      5249.1467      7750.3755      5654.4778     -338.89409     -399.0561      -1879.2448    
  27464500   268.54218     -348.51463     -269.82298     -348.47511      0              6658.8564      45.519031      20.047001      20.857         19032.431      6806.2808      6722.7031      6447.5851     -1272.2337      199.28115      2747.2817    
  27465000   266.81657     -347.96309     -269.7771      -347.9378       0              3868.5496      45.528273      20.047001      20.857         19036.295      3846.4791      4116.0164      3643.1533     -794.21993     -632.11557      485.57249    
  27465500   264.61209     -347.61256     -270.07255     -347.61669      0              4613.978       45.681519      20.047001      20.857         19100.37       4970.093       4623.581       4248.2599     -1131.0337     -92.006332      527.98758    
  27466000   261.73528     -350.30016     -273.60316     -350.30639      0              4662.8727      45.635738      20.047001      20.857         19081.229      4862.6423      5179.802       3946.1737     -404.67038      221.94717      1134.9777    
  27466500   266.00687     -350.52035     -272.57162     -350.55126      0              3923.9179      45.744693      20.047001      20.857         19126.785      3992.7548      6031.2067      1747.7922      122.55411      1456.9807      1649.8788    
  27467000   260.17516     -350.86563     -274.62579     -350.88517      0              7506.2905      45.784107      20.047001      20.857         19143.265      7788.1949      8452.6836      6277.9931     -494.6983       563.58307     -705.65808    
  27467500   264.883       -351.4275      -273.80811     -351.46204      0              5356.2788      45.727648      20.047001      20.857         19119.658      7228.8388      4340.6342      4499.3634     -217.53209     -33.37244      -938.91976    
  27468000   266.38915     -349.12234     -271.06159     -349.1382       0              4160.2722      45.702372      20.047001      20.857         19109.089      3267.9464      4957.5825      4255.2877      695.8695       1179.1337     -546.88802    
  27468500   269.56344     -351.72728     -272.73636     -351.72619      0              4896.2569      45.936829      20.047001      20.857         19207.121      5099.0581      5344.0504      4245.6622      836.5976      -1152.1434     -675.30281    
  27469000   265.79885     -348.88874     -271.00097     -348.89376      0              4178.4351      45.940185      20.047001      20.857         19208.524      3798.1116      5700.2383      3036.9554     -136.7288      -1079.6419      1560.6256    
  27469500   259.80286     -350.36758     -274.23683     -350.38547      0              5850.8799      45.531217      20.047001      20.857         19037.526      6244.1142      4014.9119      7293.6136     -1070.9375      1047.2095     -312.59345    
  27470000   267.14585     -351.48827     -273.20579     -351.4871       0              6165.3651      45.301981      20.047001      20.857         18941.678      9756.7055      5269.3195      3470.0705      673.7112       1716.1456     -185.68678    
  27470500   266.23657     -351.35874     -273.3427      -351.36492      0              5893.7916      45.677641      20.047001      20.857         19098.749      5791.0701      6247.7656      5642.539      -1452.1599     -155.23784     -854.91626    
  27471000   263.96644     -352.1798      -274.82898     -352.15228      0              5317.197       45.959172      20.047001      20.857         19216.463      7291.1044      3846.2603      4814.2264      1308.2973      643.38383     -259.96463    
  27471500   255.62046     -353.66849     -278.76333     -353.63934      0              4845.3859      45.808511      20.047001      20.857         19153.468      4991.5593      5569.7397      3974.8588     -722.67253     -438.24358     -1279.1682    
  27472000   257.59676     -351.43921     -275.95492     -351.45882      0              5303.1606      45.656659      20.047001      20.857         19089.976      5984.3429      4993.4115      4931.7273     -380.41521      50.102747     -628.60604    
  27472500   265.48586     -351.82855     -274.0325      -351.82544      0              4862.4119      45.623787      20.047001      20.857         19076.231      6322.2469      4959.1368      3305.8521      858.86086     -1532.3257      9.6125836    
  27473000   265.17939     -350.60905     -272.90281     -350.62529      0              3787.156       45.832136      20.047001      20.857         19163.346      5171.7044      2391.7363      3798.0271     -1077.1875      711.14735      120.88583    
  27473500   261.7978      -350.73029     -274.01496     -350.72258      0              3756.8938      45.819385      20.047001      20.857         19158.015      3693.6316      2967.318       4609.7318      369.47466     -659.49265      509.34095    
  27474000   261.21924     -351.64464     -275.09885     -351.64426      0              5874.3023      45.710725      20.047001      20.857         19112.582      6945.994       6870.6187      3806.2942     -618.12948      711.66126      1783.7581    
  27474500   263.05112     -351.50379     -274.4212      -351.48903      0              4629.3265      45.554964      20.047001      20.857         19047.455      4219.8014      5283.5821      4384.5959      117.69341     -1221.0045     -1083.9337    
  27475000   264.27217     -347.85659     -270.41619     -347.87646      0              4912.7831      45.779929      20.047001      20.857         19141.518      6228.3608      3367.1008      5142.8877      722.22836      1660.9385     -449.24612    
  27475500   269.88084     -349.99674     -270.91282     -349.98904      0              5016.7465      45.797895      20.047001      20.857         19149.029      5252.3439      6302.5528      3495.3427      1253.3167      2086.2659     -950.86266    
  27476000   263.90782     -349.41497     -272.08134     -349.42858      0              5484.2936      45.355133      20.047001      20.857         18963.902      5893.9016      7035.4866      3523.4926     -360.38554     -1202.5719     -256.92562    
  27476500   261.30525     -349.37994     -272.80895     -349.33714      0              4138.4606      45.340445      20.047001      20.857         18957.76       4425.3563      5428.4914      2561.5339      333.4578      -1015.5437      664.80838    
  27477000   268.49961     -349.83439     -271.15521     -349.81778      0              7822.6668      45.678793      20.047001      20.857         19099.23       8314.8696      9675.5672      5477.5638      446.35068     -582.45273      642.00676    
  27477500   261.07632     -348.65356     -272.14965     -348.64204      0              5818.6046      45.980265      20.047001      20.857         19225.282      5630.5946      5101.6984      6723.5209     -418.13429      816.5917       1427.6165    
  27478000   271.09237     -349.40228     -269.96334     -349.35393      0              5424.8711      45.696614      20.047001      20.857         19106.682      6616.8094      4696.839       4960.965       620.60122     -105.84789      69.545739    
  27478500   263.53977     -350.3678      -273.14201     -350.32391      0              5020.9625      45.513631      20.047001      20.857         19030.173      5337.6353      6135.4497      3589.8026     -270.36518      901.0654       779.76218    
  27479000   271.43968     -350.95956     -271.41884     -350.94159      0              2736.92        45.580935      20.047001      20.857         19058.314      3649.48        2954.0328      1607.2471      228.45774     -882.24368     -910.76822    
  27479500   264.40126     -349.25947     -271.78124     -349.24354      0              3751.5918      45.601258      20.047001      20.857         19066.811      5686.4775      2855.5475      2712.7503     -214.16075     -104.14454     -2037.9431    
  27480000   263.02632     -350.61623     -273.54091     -350.57159      0              5483.2366      45.529204      20.047001      20.857         19036.685      6119.0942      3878.3629      6452.2527     -415.698        1842.2201      2283.4948    
  27480500   258.67948     -350.72407     -274.92251     -350.70382      0              7464.3201      45.508614      20.047001      20.857         19028.075      9617.8423      4909.3371      7865.7808     -1108.6669      2000.4938      136.21103    
  27481000   261.85843     -349.48839     -272.7553      -349.51102      0              4011.9119      45.828181      20.047001      20.857         19161.693      5264.1988      4226.6712      2544.8657      1786.0508     -1103.8225      1800.686     
  27481500   268.81768     -348.89148     -270.1191      -348.92314      0              5721.0909      46.223849      20.047001      20.857         19327.129      4436.9003      8635.0006      4091.3717     -567.83699     -100.78426      411.47127    
  27482000   272.74208     -349.6161      -269.69373     -349.60527      0              4396.0013      46.053347      20.047001      20.857         19255.839      5804.4345      5339.8879      2043.6815      1206.4803     -1323.5486      761.63235    
  27482500   271.70215     -348.56649     -268.94887     -348.56773      0              3371.1801      45.623051      20.047001      20.857         19075.924      4510.0152      2905.594       2697.9311      1034.415      -368.81662     -449.66288    
  27483000   265.96661     -347.01428     -269.07735     -347.11525      0              5750.7037      45.641913      20.047001      20.857         19083.81       7867.7375      4642.4716      4741.902       695.40378      402.08254      1035.1941    
  27483500   264.63494     -349.21448     -271.66778     -349.22557      0              5650.9795      45.824737      20.047001      20.857         19160.253      6419.8054      5592.6168      4940.5164      21.747344     -1288.2368     -3002.1314    
  27484000   270.79738     -348.84232     -269.48982     -348.84126      0              2237.3839      45.770709      20.047001      20.857         19137.662      2892.4166      1670.2788      2149.4564      264.00905      818.10418      1314.4901    
  27484500   261.88351     -347.72162     -270.98118     -347.72638      0              7352.6807      45.487573      20.047001      20.857         19019.278      6700.2202      5773.5231      9584.2987      1607.6365      1624.5206      132.12243    
  27485000   265.2213      -348.84995     -271.13142     -348.86335      0              5342.9035      45.728858      20.047001      20.857         19120.164      7393.4048      5149.9246      3485.3811     -136.48291     -1072.6591     -745.86018    
  27485500   264.51082     -352.64482     -275.13448     -352.65639      0              3840.7051      45.943813      20.047001      20.857         19210.041      2920.4261      3009.7924      5591.8968     -923.98182      1320.4273      1563.5631    
  27486000   270.58473     -350.34125     -271.05106     -350.35932      0              8503.8117      45.576717      20.047001      20.857         19056.551      8230.5689      9616.7987      7664.0675      396.47538     -1186.5045     -340.72846    
  27486500   267.4207      -347.4694      -269.10638     -347.48357      0              6375.996       45.622976      20.047001      20.857         19075.892      8227.581       5128.688       5771.719      -472.91662     -1748.7996     -349.3646     
  27487000   260.61556     -350.69709     -274.32819     -350.71717      0              3958.4742      45.802925      20.047001      20.857         19151.133      5247.8513      3079.8905      3547.6808      620.41563      4193.3096     -680.2826     
  27487500   260.02297     -352.10393     -275.90869     -352.12508      0              5808.0816      45.86764       20.047001      20.857         19178.192      7222.6756      5320.3949      4881.1742      893.01598     -664.43241      1250.2448    
  27488000   271.9617      -353.66921     -273.97553     -353.66814      0              3710.0091      45.720054      20.047001      20.857         19116.483      4022.9889      2997.914       4109.1245      90.082399     -2100.8728      144.93408    
  27488500   265.64042     -351.78089     -273.93954     -351.80879      0              2911.7123      45.397941      20.047001      20.857         18981.801      3810.3469      1173.5095      3751.2806      599.90687     -1406.0199     -1329.9913    
  27489000   260.88011     -349.92088     -273.47446     -349.95228      0              6038.9315      45.327545      20.047001      20.857         18952.367      6973.0765      5816.1347      5327.5834     -1157.0242     -1322.58       -584.50945    
  27489500   261.682       -352.59758     -275.91618     -352.62558      0              4469.4756      45.657564      20.047001      20.857         19090.354      5546.4698      2190.6044      5671.3526     -905.58267     -1081.9426      1306.7279    
  27490000   251.66601     -349.15401     -275.40763     -349.21327      0              2712.7975      45.979236      20.047001      20.857         19224.852      2915.7544      2021.6087      3201.0294      996.36817     -611.46864      277.94224    
  27490500   260.55869     -351.65823     -275.306       -351.67983      0              3254.7526      45.587134      20.047001      20.857         19060.906      3514.9916      3600.4507      2648.8155      144.0116      -292.72081     -1320.3139    
  27491000   264.69912     -349.22469     -271.65918     -349.22801      0              3626.7736      45.409192      20.047001      20.857         18986.505      4930.839       3434.3156      2515.1662      100.59718      1137.4492      790.95703    
  27491500   264.28755     -348.31632     -270.87142     -348.36063      0              4244.5856      45.745729      20.047001      20.857         19127.218      4444.8651      3935.5119      4353.3797      2.8745458      715.04238      1992.4856    
  27492000   264.24985     -347.46433     -270.03047     -347.47889      0              8679.2932      45.83386       20.047001      20.857         19164.067      8527.1562      8461.3162      9049.4072      1516.9137      948.80544     -1629.2834    
  27492500   263.94681     -348.66666     -271.3216      -348.68362      0              4167.5762      45.635296      20.047001      20.857         19081.043      2981.6322      5633.2112      3887.8851      373.48647      769.8961       16.521423    
  27493000   260.70226     -347.95944     -271.56514     -347.98674      0              6005.1825      45.438272      20.047001      20.857         18998.664      7399.8166      5913.1767      4702.5543      1509.3207      1482.6576     -1019.6846    
  27493500   259.63199     -350.26303     -274.18236     -350.29467      0              6108.5984      45.718892      20.047001      20.857         19115.997      4478.271       6160.5038      7687.0204      579.99887      347.943        876.16509    
  27494000   259.89602     -348.51122     -272.35317     -348.53119      0              4040.8608      45.791515      20.047001      20.857         19146.362      5760.5218      3468.9822      2893.0783     -81.686949     -349.7724       293.74378    
  27494500   265.70561     -349.09291     -271.23247     -349.12932      0              6259.1711      45.698344      20.047001      20.857         19107.405      8082.7793      6076.0768      4618.6572     -341.26782     -1802.1563     -995.80827    
  27495000   272.05147     -349.97501     -270.25502     -350.00468      0              5192.4357      45.624325      20.047001      20.857         19076.456      5869.3949      5647.9873      4059.9249      818.83676      2178.3692      2059.9978    
  27495500   267.61945     -350.19249     -271.77122     -350.21884      0              5899.4315      45.629388      20.047001      20.857         19078.573      5386.3415      7038.9011      5273.0519     -464.49408     -91.189911     -790.45423    
  27496000   262.41129     -349.07943     -272.18433     -349.10322      0              6042.2861      45.645331      20.047001      20.857         19085.24       7621.6138      5128.5633      5376.6811      619.73066     -1083.2311      488.71967    
  27496500   263.37804     -348.64816     -271.46977     -348.67662      0              4525.6716      45.810136      20.047001      20.857         19154.148      5656.6462      4152.3741      3767.9944      1208.2993     -1043.5341      3655.6196    
  27497000   264.19011     -350.72295     -273.30659     -350.75477      0              5387.1688      45.910326      20.047001      20.857         19196.039      6265.2166      5072.2523      4824.0375      17.043561     -584.75741      1975.7145    
  27497500   265.40549     -352.05863     -274.28613     -352.08298      0              4980.4377      45.766228      20.047001      20.857         19135.789      5649.6244      6137.9963      3153.6923      934.64734      766.06684     -1.5354983    
  27498000   260.08188     -353.96851     -277.756       -353.97925      0              5304.5297      45.483172      20.047001      20.857         19017.437      4871.564       5685.5946      5356.4305      1195.8477     -1.3931772     -596.29617    
  27498500   260.00394     -351.46944     -275.27977     -351.4475       0              4800.288       45.580905      20.047001      20.857         19058.302      4858.8811      3513.2288      6028.754      -1530.5081      523.55297      42.102786    
  27499000   261.69456     -350.65262     -273.96754     -350.66631      0              2552.6864      45.855848      20.047001      20.857         19173.261      3499.3266      2403.7358      1754.9968      30.312003     -877.31566      132.811      
  27499500   263.30281     -352.71495     -275.5586      -352.68207      0              5024.5845      45.775603      20.047001      20.857         19139.709      6105.6399      4910.6624      4057.4511      1684.5431      2145.2747     -865.61156    
  27500000   259.49338     -351.44299     -275.40293     -351.46521      0              5863.5677      45.9599        20.047001      20.857         19216.767      5976.7912      6501.2809      5112.6309      1092.5028     -600.80076      391.76144    
  27500500   261.47718     -352.56536     -275.94398     -352.58564      0              2634.6886      45.986416      20.047001      20.857         19227.854      5154.5959      3254.3324     -504.86262      1000.5293     -1361.2709     -364.29375    
  27501000   260.72537     -352.92982     -276.52874     -352.93431      0              6165.8199      45.606047      20.047001      20.857         19068.814      8416.7764      6895.2201      3185.4634     -885.48642      59.046029     -406.19678    
  27501500   261.21721     -350.6889      -274.1437      -350.7096       0              4770.8924      45.686298      20.047001      20.857         19102.369      4539.2497      5892.0479      3881.3795      1554.5227      1258.6294      2510.8955    
  27502000   264.35664     -352.79357     -275.32841     -352.81728      0              5282.6689      45.888715      20.047001      20.857         19187.003      7475.5993      3457.2669      4915.1405     -76.320971      925.8546       391.6846     
  27502500   260.3538      -350.35937     -274.06718     -350.36171      0              5244.1314      45.892226      20.047001      20.857         19188.471      5596.3853      6205.6289      3930.3799     -24.28769       340.39726     -667.93437    
  27503000   266.83319     -349.71483     -271.52397     -349.71302      0              3926.8126      45.765907      20.047001      20.857         19135.655      4529.2618      2156.9059      5094.27        108.02437      290.02853      693.68423    
  27503500   265.2295      -350.10276     -272.38183     -350.11672      0              4585.8885      45.655895      20.047001      20.857         19089.657      5374.6385      4650.5094      3732.5175      826.9242      -545.68191     -1334.5855    
  27504000   259.86246     -349.73636     -273.58815     -349.74427      0              6037.2893      45.634494      20.047001      20.857         19080.708      7442.1618      4697.8462      5971.86       -386.98872      1005.6854     -1672.4645    
  27504500   262.98229     -349.26715     -272.20473     -349.31722      0              4286.3874      45.883501      20.047001      20.857         19184.823      5916.5747      3446.0003      3496.5871      1865.0906     -191.34713      420.5381     
  27505000   267.40401     -350.25439     -271.89626     -350.28115      0              4440.1975      46.041563      20.047001      20.857         19250.912      2664.6141      5475.6962      5180.2823     -452.65622     -810.85194     -631.17695    
  27505500   268.33906     -352.55849     -273.92636     -352.5776       0              4551.6707      45.866198      20.047001      20.857         19177.588      6047.0316      3535.8423      4072.1383      778.3998       758.91422      953.72079    
  27506000   267.63095     -348.23953     -269.8149      -348.27138      0              5498.4337      45.574991      20.047001      20.857         19055.829      7054.2756      3530.113       5910.9125     -894.57106     -968.24619     -1577.8607    
  27506500   268.4318      -349.94738     -271.28807     -349.93215      0              7666.6373      45.574524      20.047001      20.857         19055.634      8585.8625      6597.1572      7816.8921     -117.39188      2706.09        1596.5455    
  27507000   263.68868     -351.51968     -274.25026     -351.51227      0              3683.35        46.103573      20.047001      20.857         19276.84       3542.2906      3145.1296      4362.6298      1592.4422     -163.6379      -792.07567    
  27507500   261.2118      -351.01939     -274.47578     -351.01773      0              4511.888       46.019236      20.047001      20.857         19241.577      4709.9466      6445.0594      2380.658      -467.63681     -1231.262      -189.98843    
  27508000   270.29932     -350.1173      -270.91074     -350.15407      0              6255.0668      45.812292      20.047001      20.857         19155.049      7201.2043      5806.1149      5757.8811      418.6551       1254.7045      2877.2905    
  27508500   267.60332     -346.49245     -268.07591     -346.51164      0              5619.5213      45.980535      20.047001      20.857         19225.395      7305.2513      5013.7062      4539.6065     -255.10546      1452.8213      570.50551    
  27509000   270.14089     -348.75028     -269.59015     -348.79745      0              3619.8242      46.100171      20.047001      20.857         19275.417      3415.567       5390.0252      2053.8804     -1253.5513     -1258.2953      2984.0056    
  27509500   269.7837      -349.79616     -270.7407      -349.80102      0              5023.9946      45.96682       20.047001      20.857         19219.66       5587.2193      6135.1662      3349.5984      1117.666      -1162.8567     -251.9881     
  27510000   267.50281     -349.22294     -270.83585     -349.21353      0              7431.3833      45.67545       20.047001      20.857         19097.833      10533.015      4840.5864      6920.5485      681.80461     -491.9532      -567.49871    
  27510500   260.3969      -348.58876     -272.28395     -348.60172      0              5295.3009      45.707757      20.047001      20.857         19111.341      3766.9857      5421.5512      6697.3659     -509.39286      1342.5076     -586.12164    
  27511000   267.14242     -349.05085     -270.76937     -349.03965      0              6666.1299      45.765104      20.047001      20.857         19135.319      6941.4429      6555.6983      6501.2486      17.183896     -72.118536      1802.4944    
  27511500   262.08351     -349.55989     -272.76084     -349.58455      0              5452.0275      45.889083      20.047001      20.857         19187.157      3117.927       8221.7943      5016.3612     -1767.5938     -1024.289       1303.9696    
  27512000   271.25026     -350.76199     -271.27678     -350.76318      0              5712.3709      45.812825      20.047001      20.857         19155.272      9531.2085      3638.0864      3967.8177     -1172.5652      721.35752      170.02174    
  27512500   260.25205     -347.55775     -271.29538     -347.58525      0              6256.1555      45.57766       20.047001      20.857         19056.945      7455.1111      5904.5517      5408.8036      155.0313       64.384727     -438.73644    
  27513000   263.96035     -347.61491     -270.26589     -347.62072      0              6363.9466      45.548228      20.047001      20.857         19044.639      7758.4682      5606.7694      5726.6021      303.17809      454.43402     -1304.1481    
  27513500   266.51936     -348.04902     -269.95012     -348.07125      0              4504.8038      45.824236      20.047001      20.857         19160.043      4094.6368      4103.8208      5315.9539     -1511.9304      601.55961      518.68598    
  27514000   262.27703     -349.05517     -272.19941     -349.06927      0              4317.8915      46.171454      20.047001      20.857         19305.222      3881.2587      4431.1355      4641.2802      160.71986      980.60735     -1043.2913    
  27514500   265.3441      -347.41445     -269.65994     -347.43289      0              4415.8591      46.023869      20.047001      20.857         19243.514      5189.3753      4227.1217      3831.0804      85.281338      875.11536      1395.8663    
  27515000   258.89764     -348.43402     -272.56853     -348.41892      0              5087.1143      45.848877      20.047001      20.857         19170.346      7194.3911      5731.8208      2335.1311      951.22765     -301.18283      96.266083    
  27515500   256.50926     -351.00975     -275.84414     -351.02381      0              5067.8225      45.924335      20.047001      20.857         19201.897      7628.6102      4995.7492      2579.1081     -1546.5453     -938.06339     -1007.561     
  27516000   253.24943     -348.26415     -274.05377     -348.28809      0              3424.5539      46.080215      20.047001      20.857         19267.073      4862.4827      2509.6269      2901.5522     -93.590213      950.72239     -32.680944    
  27516500   266.79698     -348.53519     -270.35493     -348.51668      0              4370.8177      46.027747      20.047001      20.857         19245.135      6416.4517      2563.1631      4132.8384     -279.68627      1290.4157      1070.9407    
  27517000   263.62378     -352.19047     -274.94007     -352.20491      0              4663.7371      45.996088      20.047001      20.857         19231.898      5551.6065      3511.9316      4927.6732     -85.950815     -390.38213     -192.82307    
  27517500   250.53919     -351.9192      -278.50301     -351.92012      0              2615.4594      46.161832      20.047001      20.857         19301.199      2261.9942      2351.3141      3233.0697      281.85853      238.68057      631.88452    
  27518000   260.63439     -349.71737     -273.34296     -349.73453      0              6265.306       46.187485      20.047001      20.857         19311.925      5654.2525      8469.72        4671.9455     -454.29603      1297.12       -740.44305    
  27518500   262.00665     -350.94585     -274.16932     -350.96218      0              5418.3445      45.91844       20.047001      20.857         19199.432      5139.6554      4519.3527      6596.0252      1687.2743      250.40161      554.56858    
  27519000   266.82863     -349.38849     -271.19896     -349.39191      0              4813.2806      45.855287      20.047001      20.857         19173.026      6072.1353      4957.1866      3410.52       -2420.2602     -386.34314     -1621.8953    
  27519500   261.36367     -348.91367     -272.32556     -348.94178      0              5279.5901      46.324449      20.047001      20.857         19369.193      4267.4531      5021.9637      6549.3536     -1949.7284     -628.85486      2138.8647    
  27520000   259.69461     -347.04736     -270.94833     -347.09782      0              4163.6645      46.262876      20.047001      20.857         19343.448      5822.0902      1940.6232      4728.28       -805.92284      657.4178       171.67869    
  27520500   265.35287     -345.63477     -267.87769     -345.61945      0              6326.414       45.732994      20.047001      20.857         19121.893      7346.1324      5986.8167      5646.2929     -227.12858      2035.5801      434.93505    
  27521000   264.76634     -346.59516     -269.00995     -346.63029      0              7315.7855      45.718218      20.047001      20.857         19115.715      10449.593      4772.5669      6725.1961      1238.3324     -604.38081      1640.6703    
  27521500   252.13328     -351.36189     -277.47858     -351.37428      0              3169.9543      46.048265      20.047001      20.857         19253.714      2959.6975      3802.5526      2747.6128     -987.59466      952.51042      19.822059    
  27522000   266.25669     -351.88756     -273.86563     -351.93065      0              5608.2912      46.059244      20.047001      20.857         19258.305      6174.535       4496.9621      6153.3766      513.16545     -473.59573     -2143.8549    
  27522500   265.34957     -349.54083     -271.78471     -349.53747      0              4427.1052      45.631119      20.047001      20.857         19079.297      4688.1921      4925.4037      3667.7199      323.22994      134.34571     -144.63284    
  27523000   269.63263     -349.88951     -270.87832     -349.89395      0              5061.2707      45.687209      20.047001      20.857         19102.749      7247.0145      5162.3306      2774.467       36.915088      684.86194      883.148      
  27523500   262.5022      -348.72682     -271.80508     -348.72887      0              6670.2672      46.015263      20.047001      20.857         19239.915      6288.144       6946.4516      6776.206       563.98218      944.0332       770.17516    
  27524000   269.11272     -347.31454     -268.4557      -347.34023      0              4986.1444      45.950851      20.047001      20.857         19212.983      5355.0364      4679.402       4923.9948     -106.64263      741.11299      231.07666    
  27524500   276.9039      -347.24913     -266.10721     -347.2435       0              5835.6526      45.691942      20.047001      20.857         19104.728      8215.5133      3941.091       5350.3536      1274.8478      711.03995      643.74107    
  27525000   264.96237     -348.387       -270.74435     -348.40615      0              5373.2045      45.839033      20.047001      20.857         19166.23       7411.6456      3559.0074      5148.9605      1285.6972      182.63789      2033.1529    
  27525500   269.8257      -351.40042     -272.33266     -351.3939       0              5298.6212      45.952722      20.047001      20.857         19213.766      5600.0796      5053.7478      5242.0364     -542.6471       2101.1233     -502.76108    
  27526000   256.12181     -348.54897     -273.4969      -348.55938      0              3847.6706      45.716522      20.047001      20.857         19115.006      5113.0317      2552.2042      3877.7759      159.94818      916.94608     -961.93539    
  27526500   261.58488     -351.81282     -275.15989     -351.78069      0              7853.9276      45.400232      20.047001      20.857         18982.759      8293.9387      7155.9645      8111.8796      698.36535     -534.97631      156.59395    
  27527000   258.88402     -350.67922     -274.81773     -350.65867      0              4834.9138      45.459529      20.047001      20.857         19007.552      7397.4222      2318.6169      4788.7022      333.03473      296.60418     -275.38446    
  27527500   255.72012     -351.26839     -276.33402     -351.24855      0              3797.8546      45.897794      20.047001      20.857         19190.799      5738.1589      2134.9156      3520.4894      124.52056      366.91721     -1092.6127    
  27528000   258.17098     -345.49623     -269.84368     -345.51448      0              4580.6716      45.930995      20.047001      20.857         19204.681      3755.8543      6103.8991      3882.2614      331.34051      141.05273      1223.5766    
  27528500   266.44471     -350.02269     -271.94566     -349.99055      0              7494.2264      45.569396      20.047001      20.857         19053.49       10472.513      7003.8451      5006.3208      266.22388      898.34376     -860.10486    
  27529000   270.5205      -347.50201     -268.23064     -347.50507      0              6401.9229      45.621472      20.047001      20.857         19075.263      9280.8375      5301.4929      4623.4383      567.83074     -1193.3591      6.1959732    
  27529500   273.73028     -348.88067     -268.66873     -348.83261      0              6392.571       45.840621      20.047001      20.857         19166.894      7090.2966      4431.9692      7655.4471      137.26233     -104.01459     -2293.5895    
  27530000   265.12705     -350.65602     -272.96511     -350.63957      0              6506.9681      46.067543      20.047001      20.857         19261.775      6360.1984      5396.5751      7764.1308      197.83109      568.45327      1057.0959    
  27530500   273.42        -349.11548     -268.99446     -349.11185      0              5175.2081      45.757611      20.047001      20.857         19132.186      4491.0453      5101.7672      5932.8119     -781.06748     -930.38876      819.93393    
  27531000   270.68756     -347.79738     -268.47706     -347.79654      0              5954.7108      45.578606      20.047001      20.857         19057.34       4320.9994      7898.1452      5644.9879      967.36048      850.3744       68.760409    
  27531500   265.49469     -349.83533     -272.03669     -349.83667      0              5140.7858      46.033076      20.047001      20.857         19247.364      4739.9833      5054.1968      5628.1772     -809.04921      1315.9763      617.09097    
  27532000   270.74683     -351.13743     -271.79975     -351.15213      0              4389.772       46.015267      20.047001      20.857         19239.917      4573.4019      5123.676       3472.238       352.52655     -868.03485     -2168.3641    
  27532500   267.33413     -348.94861     -270.61096     -348.96224      0              5338.5774      45.680132      20.047001      20.857         19099.79       4965.1511      5878.5971      5171.9839     -905.13223      779.29546      547.47708    
  27533000   270.5414      -350.56831     -271.29082     -350.53947      0              4337.203       45.626496      20.047001      20.857         19077.364      3852.4142      4004.5172      5154.6777     -1320.4362      1947.0473     -1372.1765    
  27533500   263.33956     -350.66498     -273.49787     -350.65423      0              5467.0193      45.72371       20.047001      20.857         19118.011      9233.4783      3302.6837      3864.8961     -662.53048     -1199.4165      1126.0338    
  27534000   262.91156     -350.90484     -273.86314     -350.89445      0              3883.4865      45.764862      20.047001      20.857         19135.218      4278.6446      2662.934       4708.881       74.759613      230.28019     -1176.5004    
  27534500   262.26349     -347.60451     -270.75272     -347.58414      0              3079.0318      45.681791      20.047001      20.857         19100.484      3404.0862      3607.1435      2225.8658     -1598.5255      356.14659     -252.90074    
  27535000   268.85584     -348.82246     -270.0389      -348.80493      0              4689.2634      45.583404      20.047001      20.857         19059.347      4135.8182      4799.922       5132.0499      372.66055      370.28969      503.57754    
  27535500   263.98101     -350.23243     -272.87735     -350.23429      0              4690.9624      45.662315      20.047001      20.857         19092.341      4236.6585      5791.0489      4045.1798      89.821253     -182.11729      981.25338    
  27536000   265.20729     -349.50865     -271.79423     -349.48877      0              5314.3011      45.820757      20.047001      20.857         19158.589      5725.3046      3562.8879      6654.7108     -10.063372     -747.8482      -782.56302    
  27536500   260.47452     -347.0762      -270.74863     -347.06464      0              6616.0914      45.924695      20.047001      20.857         19202.047      6011.6561      6797.2379      7039.3803      108.60425     -31.429434     -894.55147    
  27537000   264.27983     -346.99544     -269.5528      -346.99271      0              5617.0727      45.887813      20.047001      20.857         19186.626      6797.9933      6375.9766      3677.2482     -909.54845      1106.8987     -120.24657    
  27537500   267.10437     -349.57049     -271.30016     -349.55871      0              5409.5189      45.755274      20.047001      20.857         19131.209      4570.8181      7015.847       4641.8916      1095.2745     -1592.2786      748.58119    
  27538000   269.84985     -348.19417     -269.11932     -348.19885      0              5208.0299      45.840491      20.047001      20.857         19166.84       4507.9421      3723.491       7392.6565      1546.9522     -2182.6912     -1891.3187    
  27538500   267.47172     -347.05344     -268.67547     -347.04044      0              5708.6865      45.841697      20.047001      20.857         19167.344      8032.2213      3614.2031      5479.6352     -910.03462     -1310.8245      595.56184    
  27539000   263.16121     -348.99686     -271.88201     -348.97733      0              5077.637       45.732158      20.047001      20.857         19121.543      5325.2313      3159.7365      6747.9431      41.276626     -2565.9859      722.21506    
  27539500   267.86739     -350.06078     -271.56686     -350.07099      0              5346.5181      45.731084      20.047001      20.857         19121.095      5591.8381      4886.8686      5560.8477      2338.2479     -1199.5342     -131.92183    
  27540000   263.27873     -349.74498     -272.59569     -349.77833      0              6141.567       45.6606        20.047001      20.857         19091.624      9428.8128      5430.1355      3565.7526     -489.18561     -556.05875     -298.98683    
  27540500   255.91685     -350.02275     -275.03073     -350.01011      0              4261.1641      45.575925      20.047001      20.857         19056.22       6313.9834      3545.0442      2924.4647      297.71191      476.70129     -532.24529    
  27541000   260.82298     -349.92613     -273.49646     -349.95031      0              7231.4882      45.582649      20.047001      20.857         19059.031      6556.2722      8366.0748      6772.1177     -493.04762     -1141.3424      54.978641    
  27541500   266.98732     -347.8688      -269.63277     -347.85494      0              5014.2091      45.502142      20.047001      20.857         19025.369      6671.8153      4690.8046      3680.0075      356.98194     -439.61937      535.75264    
  27542000   258.34855     -348.43072     -272.72614     -348.3976       0              6125.8688      45.661772      20.047001      20.857         19092.114      9637.2889      3326.2191      5414.0983      1203.2647     -1337.3202     -75.781587    
  27542500   266.31101     -350.96136     -272.92351     -350.98828      0              5287.9105      45.76156       20.047001      20.857         19133.837      6331.4383      2723.7726      6808.5205      603.53508      772.20684      1987.2764    
  27543000   266.01464     -353.3229      -275.3719      -353.33369      0              4841.8251      45.707875      20.047001      20.857         19111.39       5258.6805      4323.5515      4943.2433      1701.062       603.44345     -899.59662    
  27543500   265.9104      -349.26972     -271.34927     -349.29106      0              5945.7005      45.621983      20.047001      20.857         19075.477      9416.7141      4714.6267      3705.7607     -493.16934     -571.87389      256.91026    
  27544000   260.63424     -350.95925     -274.58489     -350.97912      0              4926.0067      45.746116      20.047001      20.857         19127.38       5021.853       5736.3338      4019.8334      191.19397      856.53024      110.92396    
  27544500   267.21255     -349.01925     -270.71722     -349.00479      0              6605.6427      45.552568      20.047001      20.857         19046.453      7026.7609      5487.2208      7302.9465     -846.7348       1085.0935      683.52972    
  27545000   263.20941     -350.31611     -273.18713     -350.28846      0              6299.2245      45.346239      20.047001      20.857         18960.183      7285.3651      7699.4424      3912.8659     -531.85174     -196.77894      187.26645    
  27545500   269.66379     -348.1474      -269.12707     -348.15997      0              4543.3006      45.512769      20.047001      20.857         19029.813      3705.4027      5736.4789      4188.0202      315.44229      2302.8119     -586.97563    
  27546000   268.34573     -350.14243     -271.50835     -350.19475      0              3937.0852      45.574669      20.047001      20.857         19055.694      5481.4177      3330.4007      2999.4374      1538.6434      1077.122      -648.30627    
  27546500   269.12112     -349.72105     -270.85974     -349.75001      0              6867.3633      45.723243      20.047001      20.857         19117.816      7687.5715      6134.0427      6780.4757      133.77937      417.03379      838.13729    
  27547000   260.58418     -350.47227     -274.11257     -350.50387      0              4296.1524      45.661067      20.047001      20.857         19091.819      4408.4924      3727.9463      4752.0185     -561.88299      346.23758     -537.96374    
  27547500   269.92734     -347.59438     -268.49683     -347.62259      0              5256.822       45.424704      20.047001      20.857         18992.991      6972.6073      6933.4438      1864.4149     -1025.1077     -2011.8997      944.33495    
  27548000   275.60747     -348.39349     -267.63148     -348.41534      0              7329.8334      45.466426      20.047001      20.857         19010.436      8024.4695      6636.206       7328.8248     -2089.0935      555.57532      433.06916    
  27548500   268.49694     -348.306       -269.6276      -348.29327      0              4746.3354      45.491348      20.047001      20.857         19020.856      7213.6932      3475.6557      3549.6573      887.97271     -139.31758     -2044.4911    
  27549000   262.94546     -346.57261     -269.52098     -346.59348      0              5836.0807      45.597208      20.047001      20.857         19065.118      6781.6749      6940.2613      3786.3059      542.14892     -2165.218       902.74417    
  27549500   277.89118     -351.29093     -269.85971     -351.30994      0              3557.6929      45.524294      20.047001      20.857         19034.631      4477.9632      2499.0361      3696.0795     -935.08374      604.04182     -201.12162    
  27550000   269.48907     -349.37838     -270.40925     -349.39469      0              4665.3799      45.354833      20.047001      20.857         18963.776      6761.2301      4656.4698      2578.4399     -161.81035     -202.98814      1292.038     
  27550500   266.9608      -349.66401     -271.43576     -349.69836      0              4395.4026      45.367143      20.047001      20.857         18968.924      6405.5824      3620.9502      3159.6753     -709.79511     -71.971217     -25.121205    
  27551000   262.33778     -347.41046     -270.5369      -347.43086      0              4997.9736      45.707017      20.047001      20.857         19111.032      5854.9404      3466.9613      5672.0191     -346.49282     -65.779577      614.59831    
  27551500   262.68127     -349.47506     -272.50085     -349.50808      0              2944.5695      45.920171      20.047001      20.857         19200.156      5688.5196      1345.7405      1799.4484      2154.8325     -1236.7632     -82.375408    
  27552000   265.36012     -349.55765     -271.79844     -349.59474      0              5793.7503      45.599083      20.047001      20.857         19065.902      5548.2376      4219.3959      7613.6173      1441.0225     -1191.2624      997.80727    
  27552500   258.05919     -349.1297      -273.50991     -349.15988      0              7200.1259      45.589953      20.047001      20.857         19062.085      6340.9976      8754.764       6504.6161     -39.331943     -1.7555954     -150.33564    
  27553000   263.63355     -351.52441     -274.27114     -351.53288      0              7377.1268      45.706948      20.047001      20.857         19111.003      5529.421       8106.2975      8495.6618      420.92376     -1051.6536      1477.3426    
  27553500   260.52156     -351.42011     -275.07876     -351.47308      0              4420.1991      45.655504      20.047001      20.857         19089.493      6296.218       5102.3022      1862.0771      447.8731       830.99314      1189.9677    
  27554000   273.08721     -350.65175     -270.62825     -350.67087      0              7757.1803      45.412509      20.047001      20.857         18987.892      9662.4365      7051.878       6557.2265     -554.58439      1816.933       1733.8489    
  27554500   265.94205     -350.31993     -272.39019     -350.32241      0              5030.5148      45.587855      20.047001      20.857         19061.208      6671.4698      2715.2763      5704.7984     -805.48802     -1036.5601     -876.65286    
  27555000   265.17499     -350.30184     -272.59689     -350.31557      0              6171.9676      45.755725      20.047001      20.857         19131.397      7782.8369      5018.6102      5714.4558     -729.05406     -423.35358     -348.08378    
  27555500   255.0847      -351.11544     -276.36727     -351.22844      0              3311.246       45.729924      20.047001      20.857         19120.609      4964.7062      3677.1916      1291.8402     -401.63947     -931.68215      10.850228    
  27556000   268.99714     -352.24257     -273.41759     -352.27467      0              4296.7267      45.602594      20.047001      20.857         19067.37       6609.1024      3592.5317      2688.5459     -223.23915     -1208.919       72.367616    
  27556500   263.4389      -352.27215     -275.07593     -352.29394      0              5641.4154      45.472632      20.047001      20.857         19013.031      5993.1748      4855.8876      6075.1837     -232.26588     -44.623236     -183.85763    
  27557000   257.92897     -348.57594     -272.9943      -348.6006       0              6516.8374      45.539041      20.047001      20.857         19040.798      7393.2738      7281.0652      4876.1731     -318.71604     -897.39367      465.59669    
  27557500   259.15922     -348.69031     -272.74817     -348.72001      0              4900.3134      45.726526      20.047001      20.857         19119.189      3659.4923      5080.3862      5961.0618      1039.4442      658.11387      1202.0649    
  27558000   266.1307      -352.63506     -274.65005     -352.66927      0              4154.2944      45.501158      20.047001      20.857         19024.958      5194.3874      4074.8839      3193.612       102.47693      551.69868      657.54694    
  27558500   269.07406     -349.40305     -270.55554     -349.43343      0              7143.5826      45.390703      20.047001      20.857         18978.774      8607.4695      7992.4836      4830.7947     -357.28743     -1389.2422     -2603.6826    
  27559000   257.03468     -352.75583     -277.43625     -352.7887       0              5340.9665      45.587407      20.047001      20.857         19061.02       6581.8393      4174.222       5266.8382     -1535.9456     -1128.7092     -503.91226    
  27559500   259.82403     -350.3477      -274.21075     -350.36529      0              5857.1424      45.757692      20.047001      20.857         19132.22       5546.0526      6195.0697      5830.3051     -1174.5975     -1113.3121     -998.62299    
  27560000   265.6498      -349.97178     -272.12769     -349.99462      0              7744.6796      45.645859      20.047001      20.857         19085.46       8159.4403      8010.8209      7063.7777      598.84983      472.34504      978.77316    
  27560500   270.3767      -349.4396      -270.21037     -349.50893      0              6591.8315      45.617366      20.047001      20.857         19073.547      5139.0903      7273.6123      7362.7918     -557.57651     -146.36145      346.94401    
  27561000   273.71374     -351.21807     -271.01098     -351.24584      0              5852.2921      45.489604      20.047001      20.857         19020.127      5883.301       7921.7429      3751.8323      50.999732      1623.9829      440.39251    
  27561500   255.26554     -350.85013     -276.04897     -350.89185      0              8274.4569      45.402215      20.047001      20.857         18983.588      9403.4345      8453.2261      6966.7099      1041.7826      833.1957      -554.42886    
  27562000   251.76457     -351.97661     -278.20135     -351.99356      0              6689.1697      45.380676      20.047001      20.857         18974.582      7673.7589      6339.5565      6054.1937     -1623.0775      979.63162     -1355.9621    
  27562500   259.68152     -353.42886     -277.33367     -353.42828      0              4576.811       45.308186      20.047001      20.857         18944.272      5469.1241      5902.4065      2358.9025     -681.50046     -446.22987      450.49929    
  27563000   267.7961      -351.23892     -272.76589     -351.27828      0              6875.2284      45.303894      20.047001      20.857         18942.478      6400.6339      5229.9893      8995.062      -819.38378     -717.84288      1269.1303    
  27563500   265.23073     -349.7443      -272.02301     -349.76918      0              5428.5165      45.450879      20.047001      20.857         19003.935      7657.2778      4875.0527      3753.2189     -267.96609     -1890.7959     -392.25426    
  27564000   265.0852      -351.21721     -273.53857     -351.2186       0              5509.2388      45.664271      20.047001      20.857         19093.159      4465.3659      7071.2015      4991.149      -206.25233      539.04154      460.06       
  27564500   265.47456     -348.4794      -270.68666     -348.49224      0              4758.355       45.736794      20.047001      20.857         19123.482      4626.4527      4036.3268      5612.2855     -217.44774     -658.66357     -796.83195    
  27565000   265.29756     -350.96919     -273.22832     -350.95497      0              5360.661       45.773762      20.047001      20.857         19138.939      6107.5569      6333.3988      3641.0272      1159.4677      92.181162      819.62431    
  27565500   269.38944     -350.78417     -271.84425     -350.7537       0              4943.7034      45.528175      20.047001      20.857         19036.254      4459.7602      6034.0246      4337.3254      479.08056      208.93934      314.79434    
  27566000   270.53805     -349.8628      -270.58629     -349.85958      0              6535.141       45.404903      20.047001      20.857         18984.712      7971.9045      5362.589       6270.9295      3555.126      -640.88767      378.66683    
  27566500   278.44106     -350.22961     -268.63726     -350.22896      0              2191.0109      45.510912      20.047001      20.857         19029.036      3444.225       2858.3674      270.44022      765.59495      571.70572     -1658.1499    
  27567000   278.06131     -349.93185     -268.45078     -349.94579      0              7320.4501      45.462226      20.047001      20.857         19008.679      7263.4715      7787.2564      6910.6223      775.31095     -856.21103      2120.7036    
  27567500   263.65099     -349.8599      -272.60153     -349.86073      0              5494.4353      45.462545      20.047001      20.857         19008.813      5527.42        7504.7186      3451.1674     -819.88702     -338.48332      266.97555    
  27568000   265.16177     -350.11482     -272.41374     -350.13994      0              5048.5535      45.31351       20.047001      20.857         18946.498      5878.6455      5812.6088      3454.4063      74.29973      -380.36108      1092.4036    
  27568500   259.44586     -352.15977     -276.13363     -352.17659      0              4580.4715      45.243944      20.047001      20.857         18917.411      3819.3312      6614.114       3307.9694     -281.1868       169.75628     -1319.7193    
  27569000   265.74986     -352.42318     -274.54977     -352.44191      0              5901.0562      45.46955       20.047001      20.857         19011.742      5844.8003      5277.9038      6580.4644      552.22529     -286.05592      1653.7505    
  27569500   260.96201     -352.01029     -275.53987     -352.03017      0              5682.2403      45.605197      20.047001      20.857         19068.459      5921.3386      5320.5159      5804.8663      1006.2257      2666.8372      402.08202    
  27570000   259.24971     -352.55023     -276.58157     -352.59016      0              6886.3795      45.293614      20.047001      20.857         18938.18       4735.7754      7795.2595      8128.1036      18.729999     -201.84329     -918.3509     
  27570500   262.1013      -350.59209     -273.78783     -350.62524      0              7008.1071      45.167335      20.047001      20.857         18885.38       8694.4014      5866.209       6463.7109      1156.351      -253.19085      3872.8524    
  27571000   275.28206     -350.84517     -270.17851     -350.88894      0              6922.1972      45.718703      20.047001      20.857         19115.918      4266.4678      6515.2862      9984.8376     -275.43584     -734.06068     -577.61323    
  27571500   265.55346     -351.66591     -273.85005     -351.68029      0              4245.2391      45.677518      20.047001      20.857         19098.697      5202.5122      4089.2044      3444.0008      1029.6118      823.21985      657.89453    
  27572000   263.07608     -351.19342     -274.10351     -351.23169      0              6451.8688      45.439327      20.047001      20.857         18999.105      5797.6162      7798.0689      5759.9214     -409.11689     -210.90367     -906.49162    
  27572500   262.47188     -352.30471     -275.39185     -352.30069      0              6219.222       45.524817      20.047001      20.857         19034.85       9523.2865      3597.5487      5536.8309      815.31139      1371.1701     -16.682911    
  27573000   258.16088     -356.22578     -280.57618     -356.25843      0              3467.906       45.808441      20.047001      20.857         19153.439      3943.2407      2865.9732      3594.5042     -568.16977     -1780.8029      125.91432    
  27573500   260.96093     -352.19363     -275.72353     -352.21502      0              6260.2541      45.646491      20.047001      20.857         19085.725      8014.3283      4736.1855      6030.2484      133.84433      1271.5958      1065.4337    
  27574000   264.63916     -352.04363     -274.49569     -352.07777      0              7183.1032      45.534664      20.047001      20.857         19038.967      8557.1349      6859.6134      6132.5614     -303.212        93.939757      475.30668    
  27574500   258.45813     -348.37962     -272.64293     -348.41239      0              5685.4317      45.652479      20.047001      20.857         19088.228      6477.0226      6378.7887      4200.4838     -283.49624     -408.51183      310.97596    
  27575000   269.51455     -350.19364     -271.21705     -350.22385      0              6503.1771      45.812654      20.047001      20.857         19155.201      6975.1502      6002.3368      6532.0444     -388.34275      167.37004     -1412.5774    
  27575500   261.669       -348.42227     -271.74469     -348.45294      0              7031.2207      45.689018      20.047001      20.857         19103.506      8650.2509      7506.6316      4936.7796      1154.5185      521.9973      -1435.7864    
  27576000   261.21567     -349.71574     -273.171       -349.75775      0              5638.3728      45.539571      20.047001      20.857         19041.019      5708.0665      6088.631       5118.4207     -82.257595     -953.29978     -1412.7508    
  27576500   265.5161      -351.39389     -273.58898     -351.42643      0              6447.6417      45.620542      20.047001      20.857         19074.875      7609.4268      4916.7036      6816.7947     -627.07657     -570.31062      214.62493    
  27577000   264.74445     -349.73364     -272.15484     -349.7618       0              6337.24        45.645842      20.047001      20.857         19085.453      7200.9867      5076.34        6734.3932     -174.61688      984.56208      173.43372    
  27577500   263.80333     -349.3247      -272.02168     -349.36069      0              6997.3489      45.589267      20.047001      20.857         19061.798      5406.0532      8678.1446      6907.849       1039.7017     -192.42084      927.41373    
  27578000   262.24914     -349.21388     -272.36629     -349.23708      0              4541.2574      45.481469      20.047001      20.857         19016.725      4566.9121      5148.9568      3907.9034      1332.5657      102.29866     -106.02651    
  27578500   265.58634     -350.37833     -272.55284     -350.4075       0              6192.1754      45.562271      20.047001      20.857         19050.51       6019.3742      5841.4323      6715.7196     -820.30503      1197.5231     -453.02781    
  27579000   259.8118      -347.53949     -271.40613     -347.58636      0              5656.1892      45.77835       20.047001      20.857         19140.857      5732.5998      6793.2917      4442.6761     -1024.9781      478.02829     -996.49572    
  27579500   269.84709     -347.88095     -268.80692     -347.92013      0              6113.0458      45.808168      20.047001      20.857         19153.325      5932.6661      7580.1245      4826.3469     -247.40804     -1444.1031     -761.00196    
  27580000   271.00796     -349.52411     -270.1099      -349.53417      0              5581.9166      45.378663      20.047001      20.857         18973.74       4903.3723      7018.2116      4824.1658     -369.47806      1640.0434     -1952.057     
  27580500   263.27432     -347.7288      -270.5808      -347.75894      0              7315.6614      45.313794      20.047001      20.857         18946.617      6616.9232      7007.7051      8322.3558     -159.94481      532.18579     -225.44569    
  27581000   266.59093     -346.8838      -268.76393     -346.91965      0              7776.6585      45.753333      20.047001      20.857         19130.397      7116.1233      8920.1747      7293.6774      955.08696     -1057.5205     -2116.647     
  27581500   271.3018      -348.67396     -269.17365     -348.71407      0              5841.0252      45.705257      20.047001      20.857         19110.296      4600.9602      7998.222       4923.8934     -875.1663      -476.2376      -143.64933    
  27582000   266.47614     -347.2506      -269.16437     -347.27583      0              7016.8345      45.412674      20.047001      20.857         18987.961      7682.5431      5913.5089      7454.4514     -1386.6028      1977.5733     -331.37989    
[...]
  29105500   267.13904     -348.2226      -269.94211     -348.20781      0              5603.7006      45.768529      20.047001      20.857         19136.751      7681.8475      5754.8189      3374.4353      395.22966     -1054.2772      1146.9636    
  29106000   261.78523     -348.13291     -271.42126     -348.12707      0              6854.3708      45.712934      20.047001      20.857         19113.506      8280.4605      7698.5627      4584.0892     -207.82571      415.61983      896.70986    
  29106500   267.8093      -350.63922     -272.16232     -350.59418      0              6044.7335      45.740767      20.047001      20.857         19125.143      8166.6199      4628.4153      5339.1652     -1116.5937      1003.9991      110.3371     
  29107000   265.71071     -349.13438     -271.27244     -349.09412      0              4099.4509      46.027893      20.047001      20.857         19245.196      6061.0837      2018.3639      4218.9052     -2340.1851      1602.4858     -933.77869    
  29107500   262.30133     -345.42695     -268.56407     -345.43644      0              6169.8244      45.915713      20.047001      20.857         19198.292      6133.7204      7393.5714      4982.1814     -929.98706     -487.87971     -2701.9626    
  29108000   266.29588     -348.46681     -270.4334      -348.44903      0              5770.0687      45.676284      20.047001      20.857         19098.181      6428.6502      4510.6563      6370.8995     -1350.174       1501.9416     -250.39541    
  29108500   263.523       -349.1275      -271.90663     -349.11619      0              4593.9043      45.704012      20.047001      20.857         19109.775      4545.4475      5064.0659      4172.1997     -452.99284      1081.0355      1661.9343    
  29109000   264.09223     -350.02052     -272.63285     -350.00087      0              6164.3699      45.881102      20.047001      20.857         19183.82       7789.3458      4497.3776      6206.3863     -642.69392     -1126.2238      1245.732     
  29109500   264.59712     -349.12649     -271.59087     -349.10448      0              4470.531       45.698246      20.047001      20.857         19107.364      8217.1103      1536.2404      3658.2423      808.20784     -173.16651     -149.90225    
  29110000   261.67861     -348.34728     -271.66687     -348.32374      0              5421.3104      45.668485      20.047001      20.857         19094.921      5524.6829      5141.2991      5597.9492     -512.58173      601.91691     -93.584296    
  29110500   259.34339     -350.0373      -274.0412      -350.02694      0              3055.9975      45.810184      20.047001      20.857         19154.168      4912.7514      2337.3903      1917.8508      426.21847      262.32938      1639.9641    
  29111000   257.97985     -350.38488     -274.78834     -350.39911      0              4206.423       45.644626      20.047001      20.857         19084.945      4682.5384      4141.1089      3795.6216      258.71065     -749.60542      260.34419    
  29111500   258.54605     -349.56813     -273.80568     -349.57908      0              5059.6514      45.47384       20.047001      20.857         19013.536      6721.2917      2929.9088      5527.7537     -900.78933      514.30427     -1441.259     
  29112000   263.65649     -349.76758     -272.5076      -349.79025      0              5166.1388      45.812572      20.047001      20.857         19155.166      5284.9955      6867.6925      3345.7285      357.98264     -516.50915      204.45794    
  29112500   273.54269     -351.90122     -271.74425     -351.90125      0              3167.0564      46.12083       20.047001      20.857         19284.055      1971.7268      5087.8917      2441.5506     -758.60875      961.0917      -289.36863    
  29113000   266.6325      -347.46251     -269.33046     -347.45674      0              2573.855       46.087856      20.047001      20.857         19270.268      3408.2098      1932.665       2380.6902     -464.5708       2667.8519      81.545379    
  29113500   265.6222      -349.69678     -271.86078     -349.67206      0              6222.2037      45.676016      20.047001      20.857         19098.069      7116.9411      7871.2336      3678.4365     -228.56955     -916.64148      930.25179    
  29114000   269.74433     -348.9059      -269.86198     -348.87294      0              6679.5981      45.546068      20.047001      20.857         19043.736      6217.4861      7642.5592      6178.7489      340.647       -2180.0527     -658.5723     
  29114500   263.47118     -349.68334     -272.47765     -349.66055      0              2504.6001      45.938528      20.047001      20.857         19207.831      2537.1567      304.69787      4671.9457      182.16938      48.168536     -282.30387    
  29115000   263.2957      -347.97168     -270.81742     -347.96987      0              6608.9384      45.803144      20.047001      20.857         19151.224      7339.8766      5876.087       6610.8515      681.90203      1531.8823      333.4179     
  29115500   273.22598     -349.38195     -269.31779     -349.35662      0              7603.7261      45.638341      20.047001      20.857         19082.317      8099.4912      6552.4377      8159.2495     -751.56546      496.89939     -808.24018    
  29116000   271.21405     -347.85886     -268.38426     -347.83428      0              4712.2302      45.818673      20.047001      20.857         19157.718      7247.5446      4533.2944      2355.8515     -361.58514      821.99766     -1353.496     
  29116500   267.99835     -352.08176     -273.54947     -352.06328      0              6082.5187      45.813532      20.047001      20.857         19155.568      6411.5962      4817.2754      7018.6844     -1196.9238     -651.03736      749.47118    
  29117000   265.08681     -351.00059     -273.32147     -350.98032      0              4340.0826      45.714923      20.047001      20.857         19114.337      5212.9399      3637.3306      4169.9772     -1009.6046      1214.8399     -323.98919    
  29117500   265.74994     -349.93232     -272.05888     -349.90685      0              5656.5351      45.630776      20.047001      20.857         19079.154      5017.052       6743.0455      5209.5077      1336.3526     -196.54285      1215.1842    
  29118000   263.89424     -351.18253     -273.85287     -351.16136      0              5286.2037      45.744623      20.047001      20.857         19126.755      6825.1024      4763.7339      4269.7748     -548.74781      1509.2301      180.79885    
  29118500   259.01382     -350.75483     -274.8553      -350.775        0              4674.9575      45.88404       20.047001      20.857         19185.048      5532.7934      2853.5586      5638.5205      141.87489     -1865.3477      74.181308    
  29119000   259.71089     -349.88276     -273.77896     -349.8812       0              5426.7655      45.748216      20.047001      20.857         19128.258      7314.5569      4127.0178      4838.7218      903.36381     -1430.9131      1279.7631    
  29119500   257.50215     -350.46061     -275.00405     -350.47939      0              6189.4152      45.560977      20.047001      20.857         19049.969      9491.7944      3874.1573      5202.2939     -48.082032     -1732.6721     -32.34782     
  29120000   267.64745     -350.75752     -272.32805     -350.74809      0              6860.5435      45.637332      20.047001      20.857         19081.895      7771.4969      6867.1542      5942.9792     -834.15813     -1184.6072      906.21834    
  29120500   265.40609     -348.78612     -271.01344     -348.74042      0              4359.1864      45.820557      20.047001      20.857         19158.505      4155.9877      3621.2252      5300.3464     -550.98143     -2507.2802      1827.0875    
  29121000   253.44946     -348.70825     -274.43926     -348.68249      0              5513.5741      45.610764      20.047001      20.857         19070.786      4249.2961      5882.2243      6409.2019     -330.92022      477.24798      176.74844    
  29121500   269.81063     -350.29733     -271.23398     -350.27721      0              7552.5766      45.650303      20.047001      20.857         19087.318      7475.4387      7555.4789      7626.8122      401.81413      1165.4161     -110.28198    
  29122000   269.14259     -349.52525     -270.65766     -349.52147      0              4490.2914      45.916643      20.047001      20.857         19198.681      3039.863       6338.4066      4092.6046      289.82993     -1110.3545      576.71355    
  29122500   263.65025     -349.23833     -271.98017     -349.20909      0              6652.0973      46.027109      20.047001      20.857         19244.869      7897.6097      6123.1213      5935.5609     -1102.1703      1593.3296     -1898.7105    
  29123000   271.67996     -349.66        -270.04888     -349.6437       0              6814.2626      45.819068      20.047001      20.857         19157.882      6600.332       6201.4567      7640.9992     -782.99191      256.47055     -107.61565    
  29123500   260.44577     -347.5071      -271.18797     -347.50286      0              6029.3374      45.756573      20.047001      20.857         19131.752      6657.7905      7063.6188      4366.603      -706.32824      1852.7011     -514.84077    
  29124000   259.24199     -349.28904     -273.32265     -349.25292      0              6560.9018      45.821529      20.047001      20.857         19158.912      6538.0817      5904.2443      7240.3794      899.51954      0.35824873     1121.453     
  29124500   267.9117      -349.88979     -271.38289     -349.87105      0              6450.3477      45.875625      20.047001      20.857         19181.53       6725.8378      6675.2514      5949.9538     -324.73684     -2126.3406     -611.0421     
  29125000   262.62617     -349.98172     -273.02365     -349.96205      0              4727.0374      45.826006      20.047001      20.857         19160.784      4298.5416      5079.7139      4802.8567     -179.62418      1164.7647     -212.08435    
  29125500   258.51816     -351.66962     -275.91533     -351.64574      0              3076.4524      45.635579      20.047001      20.857         19081.162      5548.2973     -1676.7739      5357.8336     -1578.535      -969.51528      871.029      
  29126000   259.68821     -350.63136     -274.53421     -350.60433      0              5292.8198      45.674585      20.047001      20.857         19097.471      6444.7743      6772.0281      2661.657       76.44776       238.12177      557.77492    
  29126500   258.54926     -349.1863      -273.4229      -349.16882      0              5216.6604      45.786021      20.047001      20.857         19144.065      6764.281       3610.5525      5275.1476      812.03044     -474.24829     -2156.7452    
  29127000   267.49684     -350.1612      -271.77587     -350.15634      0              5263.4768      45.734354      20.047001      20.857         19122.462      6589.1063      3382.9778      5818.3462      196.89873     -545.27345      310.2048     
  29127500   265.75507     -350.20996     -272.33502     -350.17843      0              6423.0554      45.644962      20.047001      20.857         19085.085      6694.1779      6032.9959      6541.9923     -780.40127     -525.78977     -1544.4133    
  29128000   268.29064     -350.28627     -271.66833     -350.26721      0              4693.8324      45.866951      20.047001      20.857         19177.903      7505.8891      2683.2709      3892.3373      154.60617     -199.95743      170.71807    
  29128500   262.58429     -351.71401     -274.76821     -351.72896      0              6028.0165      45.999879      20.047001      20.857         19233.483      7379.248       4876.6668      5828.1346     -440.5068       387.40539      2279.9223    
  29129000   263.37904     -348.75538     -271.5767      -348.76103      0              6221.0061      45.826791      20.047001      20.857         19161.111      6382.3918      5942.3729      6338.2535      1233.8224     -671.35028      1761.8881    
  29129500   268.06698     -349.6905      -271.1381      -349.70786      0              6552.468       45.598461      20.047001      20.857         19065.642      6742.5735      6697.0055      6217.825       8.3740249     -1267.7535     -896.96034    
  29130000   271.05418     -348.84745     -269.4197      -348.82499      0              6829.8253      45.752416      20.047001      20.857         19130.014      7107.8968      4831.5941      8549.985       93.488741      866.30934     -456.3527     
  29130500   274.20927     -348.56857     -268.21627     -348.5922       0              4734.481       45.837845      20.047001      20.857         19165.733      5205.2666      6365.8516      2632.325       689.10424      1381.4302     -1040.1755    
  29131000   256.98212     -349.42941     -274.12524     -349.42061      0              7266.1163      45.619435      20.047001      20.857         19074.412      7979.2883      7894.4525      5924.608       162.49982      1386.7114     -1627.0382    
  29131500   256.0689      -350.39011     -275.35354     -350.37667      0              5374.9195      45.722601      20.047001      20.857         19117.548      5411.9494      4769.4926      5943.3163      428.74089     -166.1         -2062.6097    
  29132000   264.15651     -349.65467     -272.24817     -349.65646      0              4450.793       45.817163      20.047001      20.857         19157.086      4789.076       6831.7733      1731.5296      1014.2044     -417.14951      8.4681639    
  29132500   263.36742     -351.20796     -274.03268     -351.19152      0              5979.5689      45.732929      20.047001      20.857         19121.866      6324.767       5007.6553      6606.2844     -1416.3315      513.56147      651.14796    
  29133000   265.31355     -347.29101     -269.54545     -347.26641      0              4302.017       45.722483      20.047001      20.857         19117.498      4697.7554      4511.654       3696.6418      863.84885      122.23665      216.67061    
  29133500   254.43906     -350.11056     -275.55158     -350.07851      0              7769.8152      45.729047      20.047001      20.857         19120.243      7109.4187      8814.1896      7385.8372     -266.77571      31.736632     -610.30019    
  29134000   264.29916     -350.1567      -272.70839     -350.13047      0              4155.3345      45.735421      20.047001      20.857         19122.908      5729.9257      4554.2855      2181.7923     -369.1663       572.02943      139.24533    
  29134500   259.78726     -349.9086      -273.78243     -349.89222      0              5996.986       45.587381      20.047001      20.857         19061.01       7935.2139      5898.1111      4157.633       523.41921     -522.45248     -169.34729    
  29135000   263.55197     -349.97577     -272.74641     -349.95534      0              6024.5693      45.29749       20.047001      20.857         18939.8        8021.6037      5722.5627      4329.5414     -410.77062     -1440.5085      758.29326    
  29135500   261.57619     -350.04399     -273.3936      -350.02101      0              5943.7401      45.528965      20.047001      20.857         19036.584      6716.6716      5375.9045      5738.6441      785.44229      1860.9482      258.03812    
  29136000   256.14054     -348.83999     -273.78242     -348.84468      0              6158.0229      45.744323      20.047001      20.857         19126.63       6550.2408      3781.0001      8142.8278      733.47265      344.97704      185.5526     
  29136500   270.92695     -350.41217     -271.0217      -350.35436      0              8244.3771      45.37964       20.047001      20.857         18974.149      8997.4931      8122.9232      7612.7149      250.44025      270.03097     -86.805293    
  29137000   265.63466     -349.58347     -271.74382     -349.54549      0              6615.2537      45.280592      20.047001      20.857         18932.735      8200.6645      6235.4305      5409.6661     -1030.896      -1053.7502     -2215.8833    
  29137500   265.11386     -348.78569     -271.09864     -348.79627      0              6292.3186      45.670321      20.047001      20.857         19095.688      7109.9456      5818.5151      5948.4951      608.54205      378.6989      -1423.2022    
  29138000   263.08125     -349.97605     -272.88463     -349.94535      0              5021.4436      45.916246      20.047001      20.857         19198.515      5103.9385      4672.8453      5287.5469     -589.43117     -123.25762      1264.2092    
  29138500   266.74817     -346.78304     -268.61709     -346.7817       0              7101.1597      45.804523      20.047001      20.857         19151.801      4688.6885      8215.3665      8399.4242      202.08257     -619.64153     -31.27732     
  29139000   263.40104     -344.97589     -267.79076     -344.98593      0              4933.0798      45.432297      20.047001      20.857         18996.166      3146.2964      4217.1769      7435.766      -763.0151      -1790.2858      655.15986    
  29139500   269.84004     -347.79773     -268.72576     -347.78153      0              8271.7248      45.271822      20.047001      20.857         18929.068      10467.251      6775.9298      7571.994      -573.74235      1942.9239      188.8681     
  29140000   261.12742     -346.68394     -270.16505     -346.63056      0              5416.3235      45.52435       20.047001      20.857         19034.655      7002.2639      3785.1546      5461.5521      954.42228      202.84235      1038.4876    
  29140500   265.68339     -349.93583     -272.0819      -349.91913      0              7242.9287      45.515232      20.047001      20.857         19030.843      7827.0952      3995.344       9906.3469      176.34051      525.3672      -955.36724    
  29141000   264.47279     -348.28234     -270.78315     -348.26335      0              6825.7296      45.530145      20.047001      20.857         19037.078      9536.3223      4969.5829      5971.2835      2113.7533     -900.81555      1185.0428    
  29141500   268.61761     -348.45953     -269.74577     -348.42591      0              8078.7563      45.714091      20.047001      20.857         19113.989      7390.3784      7663.1466      9182.744      -433.61261      764.76488     -570.2224     
  29142000   271.35834     -349.99908     -270.4822      -349.95643      0              4390.2857      45.761078      20.047001      20.857         19133.636      4912.2298      3415.4367      4843.1905     -1032.7844     -40.091393     -712.45711    
  29142500   263.95377     -349.12471     -271.77762     -349.10732      0              4510.0314      45.659539      20.047001      20.857         19091.18       6684.608       3231.4791      3614.0073      716.07194     -104.72766      953.56994    
  29143000   261.64781     -349.95039     -273.27901     -349.92662      0              4513.9172      45.725831      20.047001      20.857         19118.898      5612.8788      4485.1942      3443.6787      398.06311      1884.1172      2762.7987    
  29143500   265.35136     -348.18757     -270.43093     -348.16326      0              3997.289       45.700896      20.047001      20.857         19108.472      3663.5507      4434.3601      3893.9561     -685.23862      142.24906     -1014.428     
  29144000   267.90265     -350.45815     -271.9539      -350.42941      0              5397.2426      45.797266      20.047001      20.857         19148.767      5876.5958      5356.574       4958.558       76.616174      1317.4751     -1015.9194    
ERROR on proc 0: Cannot open restart file restart2.lmp.0: Permission denied (../write_restart.cpp:233)
Last command: run             40000000 upto
