LAMMPS (23 Jun 2022)
echo both

include		in.partitions
variable        pid world 0
include		in.temp
variable	temperature equal 265.0
variable        tempDamp equal 0.100 # this is 0.1 ps
include		in.pressure
variable        pressure equal 6079.5
variable        pressureDamp equal 1.0 #this is 1ps
include		in.seed
variable        seed world 745823

units           metal
atom_style	full
read_restart	restart.lmp.${pid}
read_restart	restart.lmp.0
Reading restart file ...
  restart file = 23 Jun 2022, LAMMPS = 23 Jun 2022
  restoring atom style full from restart
  orthogonal box = (0.73325104 0 0) to (46.717448 20.047001 20.857)
  4 by 1 by 1 MPI processor grid
Summary of lammps deepmd module ...
  >>> Info of deepmd-kit:
  installed to:       /u/sigbjobo/software/DEEPMD_FROM_SOURCE/deepmd-kit/install
  source:             v2.1.3
  source branch:       master
  source commit:      5a32c49
  source commit at:   2022-07-01 09:52:58 +0800
  surpport model ver.:1.1 
  build float prec:   double
  build with tf inc:  /u/sigbjobo/software/DEEPMD_FROM_SOURCE/tensorflow/install/include;/u/sigbjobo/software/DEEPMD_FROM_SOURCE/tensorflow/install/include
  build with tf lib:  /u/sigbjobo/software/DEEPMD_FROM_SOURCE/tensorflow/install/lib/libtensorflow_cc.so;/u/sigbjobo/software/DEEPMD_FROM_SOURCE/tensorflow/install/lib/libtensorflow_framework.so
  set tf intra_op_parallelism_threads: 0
  set tf inter_op_parallelism_threads: 0
  >>> Info of lammps module:
  use deepmd-kit at:  /u/sigbjobo/software/DEEPMD_FROM_SOURCE/deepmd-kit/install
  source:             v2.1.3
  source branch:      master
  source commit:      5a32c49
  source commit at:   2022-07-01 09:52:58 +0800
  build float prec:   double
  build with tf inc:  /u/sigbjobo/software/DEEPMD_FROM_SOURCE/tensorflow/install/include;/u/sigbjobo/software/DEEPMD_FROM_SOURCE/tensorflow/install/include
  build with tf lib:  /u/sigbjobo/software/DEEPMD_FROM_SOURCE/tensorflow/install/lib/libtensorflow_cc.so;/u/sigbjobo/software/DEEPMD_FROM_SOURCE/tensorflow/install/lib/libtensorflow_framework.so
  restoring pair style deepmd from restart
  2268 atoms
Finding 1-2 1-3 1-4 neighbors ...
  special bond factors lj:    0        0        0       
  special bond factors coul:  0        0        0       
     0 = max # of 1-2 neighbors
     0 = max # of 1-3 neighbors
     0 = max # of 1-4 neighbors
     1 = max # of special neighbors
  special bonds CPU = 0.000 seconds
  read_restart CPU = 0.006 seconds
include 	in.setup
variable	out_freq equal 500
variable	out_freq2 equal 1000
variable	out_freq3 equal 5000

timestep        0.0005

neigh_modify    delay 7 every 1

include         in.deepmd
# This is deepMD model

# create groups ###
#group ox type 2
#group hy type 1

mass 2 15.999
mass 1 1.008

pair_style      deepmd ../graph.pb
pair_coeff      * *

bond_style      none
angle_style     none
dihedral_style  none
improper_style  none
neigh_modify exclude none


neighbor        2.0 bin
neigh_modify    every 10 delay 0 check no

thermo          ${out_freq}
thermo          500
thermo_style 	custom step temp pe etotal epair emol press lx ly lz vol pxx pyy pzz pxy pxz pyz
#thermo_modify	flush yes
restart 	${out_freq} restart.lmp.${pid} restart2.lmp.${pid}
restart 	500 restart.lmp.${pid} restart2.lmp.${pid}
restart 	500 restart.lmp.0 restart2.lmp.${pid}
restart 	500 restart.lmp.0 restart2.lmp.0

include		in.dump
dump            myDump all atom ${out_freq3} dump.water.${pid}
dump            myDump all atom 5000 dump.water.${pid}
dump            myDump all atom 5000 dump.water.0
dump            myDump2 all dcd ${out_freq2} dump.dcd.${pid}
dump            myDump2 all dcd 1000 dump.dcd.${pid}
dump            myDump2 all dcd 1000 dump.dcd.0
dump_modify     myDump append yes
dump_modify     myDump2 append yes


timer           timeout 23:50:00 every 1000
New timer settings: style=normal  mode=nosync  timeout=23:50:00

fix             1 all plumed plumedfile plumed.dat outfile plumed.out
fix             3 all nph x ${pressure} ${pressure} ${pressureDamp}
fix             3 all nph x 6079.5 ${pressure} ${pressureDamp}
fix             3 all nph x 6079.5 6079.5 ${pressureDamp}
fix             3 all nph x 6079.5 6079.5 1
Resetting global fix info from restart file:
  fix style: nph, fix ID: 3
fix             4 all temp/csvr ${temperature} ${temperature} ${tempDamp} ${seed}
fix             4 all temp/csvr 265 ${temperature} ${tempDamp} ${seed}
fix             4 all temp/csvr 265 265 ${tempDamp} ${seed}
fix             4 all temp/csvr 265 265 0.1 ${seed}
fix             4 all temp/csvr 265 265 0.1 745823
Resetting global fix info from restart file:
  fix style: temp/csvr, fix ID: 4

run             40000000 upto

CITE-CITE-CITE-CITE-CITE-CITE-CITE-CITE-CITE-CITE-CITE-CITE-CITE

Your simulation uses code contributions which should be cited:

- USER-DEEPMD package:

@article{Wang_ComputPhysCommun_2018_v228_p178,
  author = {Wang, Han and Zhang, Linfeng and Han, Jiequn and E, Weinan},
  doi = {10.1016/j.cpc.2018.03.016},
  url = {https://doi.org/10.1016/j.cpc.2018.03.016},
  year = 2018,
  month = {jul},
  publisher = {Elsevier {BV}},
  volume = 228,
  journal = {Comput. Phys. Commun.},
  title = {{DeePMD-kit: A deep learning package for many-body potential energy representation and molecular dynamics}},
  pages = {178--184}
}

CITE-CITE-CITE-CITE-CITE-CITE-CITE-CITE-CITE-CITE-CITE-CITE-CITE

Generated 0 of 1 mixed pair_coeff terms from geometric mixing rule
All restart file global fix info was re-assigned
Neighbor list info ...
  update every 10 steps, delay 0 steps, check no
  max neighbors/atom: 2000, page size: 100000
  master list distance cutoff = 8
  ghost atom cutoff = 8
  binsize = 4, bins = 12 6 6
  1 neighbor lists, perpetual/occasional/extra = 1 0 0
  (1) pair deepmd, perpetual
      attributes: full, newton on
      pair build: full/bin
      stencil: full/bin/3d
      bin: standard
Per MPI rank memory allocation (min/avg/max) = 6.183 | 6.185 | 6.189 Mbytes
   Step          Temp          PotEng         TotEng         E_pair         E_mol          Press            Lx             Ly             Lz           Volume          Pxx            Pyy            Pzz            Pxy            Pxz            Pyz      
  26696000   268.81314     -347.45157     -268.68051     -347.45157      0              5083.4287      45.984197      20.047001      20.857         19226.926      4099.1757      5871.1639      5279.9466      885.44316     -597.48624     -694.35137    
  26696500   255.62569     -349.69153     -274.78483     -349.68485      0              5485.7895      45.769689      20.047001      20.857         19137.236      6483.4         4022.2612      5951.7073     -1560.7321     -293.37425     -267.26927    
  26697000   260.12307     -348.88595     -272.66138     -348.85381      0              6526.5565      45.52955       20.047001      20.857         19036.829      7312.3574      4306.207       7961.1052     -1081.4851      500.01656      601.43088    
  26697500   266.38257     -350.5575      -272.49869     -350.55352      0              6097.6737      45.641091      20.047001      20.857         19083.467      6735.8957      5668.2594      5888.866       467.69841     -195.31629      2594.4765    
  26698000   262.28584     -350.61775     -273.75941     -350.61489      0              7397.2502      45.896816      20.047001      20.857         19190.391      8566.5244      7668.5743      5956.6519      133.38289      1092.5723      219.31152    
  26698500   263.65733     -349.05132     -271.79109     -349.02956      0              7061.0751      45.786456      20.047001      20.857         19144.247      6974.6697      7343.0327      6865.5227      34.513189      53.286274      675.06232    
  26699000   270.34753     -351.70009     -272.47941     -351.64828      0              4874.4501      45.743036      20.047001      20.857         19126.092      4795.1052      4906.2113      4922.0338     -701.36073      481.57126      1888.5102    
  26699500   265.49779     -351.57763     -273.77808     -351.5987       0              6145.9213      45.694297      20.047001      20.857         19105.713      6279.9717      5908.4843      6249.3081      455.12984     -334.05096      1839.3834    
  26700000   255.38349     -351.04177     -276.20605     -351.05068      0              6324.0841      45.750257      20.047001      20.857         19129.111      7701.891       6556.9623      4713.3989     -933.33291      586.48595     -1662.2636    
  26700500   270.73288     -352.28303     -272.94942     -352.24108      0              3346.3528      45.730295      20.047001      20.857         19120.764      5262.8186      648.31596      4127.9237      606.49126      619.61931      1351.4593    
  26701000   263.80561     -349.54613     -272.24244     -349.52996      0              6811.8407      45.613981      20.047001      20.857         19072.131      7327.6216      7633.695       5474.2055     -1031.5822     -714.43859      1516.7461    
  26701500   264.14879     -348.04864     -270.64439     -348.05433      0              5701.7352      45.669196      20.047001      20.857         19095.218      7491.2977      4534.0172      5079.8906      874.77189      361.77616      125.28566    
  26702000   263.28293     -349.89091     -272.74039     -349.90731      0              6524.2668      45.92927       20.047001      20.857         19203.96       4603.5889      7298.4876      7670.7239      264.3792      -186.05274      1261.1334    
  26702500   266.89052     -349.24707     -271.0394      -349.19371      0              5736.2784      45.838878      20.047001      20.857         19166.165      5511.4046      6350.4263      5347.0044      1292.7547      317.70739     -437.97801    
  26703000   256.17425     -350.35922     -275.29178     -350.33897      0              5496.0062      45.745247      20.047001      20.857         19127.016      7572.7288      5191.5014      3723.7885      15.928642      1829.899      -558.58552    
  26703500   262.70237     -352.72512     -275.74473     -352.68761      0              4527.448       45.765064      20.047001      20.857         19135.302      5192.5748      2733.6482      5656.1209     -35.340589     -240.77273     -479.005      
  26704000   271.63546     -349.73162     -270.13353     -349.74737      0              3496.3555      45.75797       20.047001      20.857         19132.336      2359.6639      3692.7788      4436.6237      524.0174      -374.76803     -2575.3846    
  26704500   269.21029     -351.04482     -272.15739     -351.03524      0              4413.4095      45.588575      20.047001      20.857         19061.509      5780.7037      3674.847       3784.6779     -383.65189     -410.50186      1004.2824    
  26705000   267.44274     -348.72677     -270.35729     -348.69071      0              6050.4723      45.575407      20.047001      20.857         19056.003      8418.0404      5782.0915      3951.285       109.76704      207.46983      168.13027    
  26705500   267.97321     -349.25766     -270.73273     -349.20766      0              6576.5565      45.580625      20.047001      20.857         19058.185      4589.8935      7569.3157      7570.4601      222.09001      397.488       -199.59845    
  26706000   259.74066     -350.99888     -274.88636     -350.99009      0              6163.0833      45.639392      20.047001      20.857         19082.756      6246.541       4960.7329      7281.9761      347.23584      347.87371      601.12256    
  26706500   269.01286     -349.34965     -270.52007     -349.34752      0              3769.8419      45.686812      20.047001      20.857         19102.584      3453.369       6282.8448      1573.3121     -413.55184      1504.9863     -83.464146    
  26707000   270.52474     -347.89466     -268.62205     -347.89478      0              4556.9932      45.773351      20.047001      20.857         19138.767      3480.8292      5032.8377      5157.3128     -430.61196     -1120.9337     -322.92642    
  26707500   272.63119     -350.551       -270.66113     -350.50797      0              3327.7001      45.459088      20.047001      20.857         19007.367      4237.6514      4188.6724      1556.7765     -671.96842      1914.8378      506.05201    
  26708000   266.29014     -352.57209     -274.54035     -352.55142      0              5846.4323      45.215454      20.047001      20.857         18905.499      4969.4768      8130.726       4439.0942      1269.3089      1402.3666     -640.42856    
  26708500   257.79088     -349.97268     -274.43151     -349.96969      0              3249.2864      45.681441      20.047001      20.857         19100.338      2278.2932      5826.568       1642.998      -803.34694      764.72443     -1667.7238    
  26709000   258.11714     -352.48504     -276.84826     -352.45909      0              5520.2644      45.966345      20.047001      20.857         19219.462      5973.7338      4927.8199      5659.2397      487.16047     -1880.0358      1602.6497    
  26709500   256.2279      -349.63725     -274.55409     -349.62119      0              4001.3416      45.699019      20.047001      20.857         19107.688      4501.0259      5689.5155      1813.4833      1169.9265     -121.6813      -861.56652    
  26710000   260.69231     -349.7361      -273.34471     -349.71533      0              4572.5601      45.561034      20.047001      20.857         19049.993      4794.2163      6803.4171      2120.047      -306.41836      312.66578     -500.87406    
  26710500   270.83196     -350.23377     -270.87113     -350.21509      0              7208.4986      45.758395      20.047001      20.857         19132.514      7333.4226      4968.3734      9323.6997      335.10219      605.98527      402.88664    
  26711000   266.53241     -349.01526     -270.91254     -348.99004      0              4803.6073      45.955839      20.047001      20.857         19215.069      6335.0171      3259.9919      4815.8128      462.92496     -661.22209     -1191.8278    
  26711500   270.84051     -351.02816     -271.66302     -351.00633      0              5876.1424      45.770386      20.047001      20.857         19137.527      5127.5061      5432.1968      7068.7244     -865.18479     -612.93932     -568.48319    
  26712000   260.59613     -347.29231     -270.92911     -347.2724       0              6389.557       45.550049      20.047001      20.857         19045.4        5493.4468      7206.3095      6468.9146      519.9022      -356.72154      21.366654    
  26712500   264.89138     -350.18689     -272.56504     -350.16348      0              5022.0303      45.596505      20.047001      20.857         19064.824      6082.6553      4297.7401      4685.6953     -153.30359      712.10542     -319.05585    
  26713000   267.15099     -351.18614     -272.90215     -351.14572      0              3597.3143      45.590393      20.047001      20.857         19062.269      4277.4805      2488.8305      4025.6319      2397.5237     -66.402557      1570.1989    
  26713500   263.78252     -350.50436     -273.20744     -350.43598      0              5896.1791      45.642353      20.047001      20.857         19083.994      7842.4088      5239.0394      4607.0892     -302.32621     -792.6508       27.935521    
  26714000   267.55921     -349.27769     -270.87408     -349.27749      0              4892.9936      45.673615      20.047001      20.857         19097.066      5006.5639      3505.9021      6166.5148      589.19953      60.94108       649.16176    
  26714500   266.87347     -350.40384     -272.20117     -350.37448      0              5385.9805      45.764792      20.047001      20.857         19135.188      6618.7521      5079.0629      4460.1266      165.13348     -949.83113      2261.2139    
  26715000   271.47315     -351.51524     -271.96472     -351.48784      0              6697.1076      45.688013      20.047001      20.857         19103.086      6299.5562      6412.224       7379.5426     -976.58206     -2466.5822     -883.5328     
  26715500   255.54764     -350.95209     -276.06826     -350.95125      0              4087.0606      45.77413       20.047001      20.857         19139.093      4541.6013      2930.2382      4789.3424      68.329087     -44.329166      1324.4596    
  26716000   267.92925     -349.99527     -271.48323     -349.96047      0              6253.0535      45.698801      20.047001      20.857         19107.596      7757.3662      3240.7726      7761.0218     -1192.6468     -1051.729       1006.2053    
  26716500   270.74527     -351.75869     -272.42146     -351.70914      0              5658.8339      45.790308      20.047001      20.857         19145.857      6172.2608      4306.8655      6497.3753     -191.06783      115.90399     -787.7574     
  26717000   257.00047     -351.11439     -275.80484     -351.08852      0              2568.5701      46.09313       20.047001      20.857         19272.473      1995.2964      1593.6295      4116.7844      1116.7679      962.55822     -1475.6828    
  26717500   261.47976     -351.65599     -275.03386     -351.61579      0              6214.6921      45.810777      20.047001      20.857         19154.416      5591.3712      4357.2652      8695.44       -1233.0092      849.35187     -1776.7507    
  26718000   262.13105     -352.02993     -275.21695     -351.95595      0              4679.9169      45.303346      20.047001      20.857         18942.249      3710.8931      5081.2563      5247.6012      379.24153     -3351.3139      801.66749    
  26718500   259.05829     -352.17117     -276.25861     -352.12926      0              5160.8154      45.588774      20.047001      20.857         19061.592      5634.8556      3880.1044      5967.4862     -91.265651      1572.4953     -1340.2696    
  26719000   259.51733     -350.53243     -274.48536     -350.51848      0              5815.5495      45.803272      20.047001      20.857         19151.278      8741.4044      3235.7981      5469.4461     -239.66164     -14.769965     -418.81127    
  26719500   265.33466     -353.21398     -275.46224     -353.14014      0              5988.7161      45.53341       20.047001      20.857         19038.443      8878.0591      3160.6693      5927.42       -222.78319      54.683778     -728.36253    
  26720000   264.0102      -350.02138     -272.65775     -349.92845      0              6319.0089      45.557478      20.047001      20.857         19048.506      7666.0798      4459.1839      6831.7631      905.05457      512.30419     -1193.5579    
  26720500   264.1288      -351.89868     -274.50029     -351.8572       0              7259.9431      45.732931      20.047001      20.857         19121.867      8869.5993      5040.6542      7869.5759      702.85374     -1218.8918      1189.4112    
  26721000   265.89616     -350.70285     -272.78657     -350.6518       0              3854.6466      45.689378      20.047001      20.857         19103.656      3705.188       2905.9236      4952.8282      919.02882      3060.2443      283.86618    
  26721500   266.97355     -351.70604     -273.47405     -351.67636      0              5040.5188      45.418181      20.047001      20.857         18990.264      8840.1372      3693.2634      2588.1557     -667.7056       147.80084      987.47719    
  26722000   270.08444     -349.17024     -270.02666     -349.13658      0              4916.2201      45.481283      20.047001      20.857         19016.648      4929.8395      4757.4177      5061.4032     -255.67409     -739.93115     -1772.9405    
  26722500   269.98356     -351.67672     -272.56269     -351.65938      0              4614.4523      45.793193      20.047001      20.857         19147.064      6800.8177      2896.038       4146.5011      1021.2059      1566.2462     -1379.6827    
  26723000   259.66493     -351.54479     -275.45446     -351.50829      0              5994.75        45.739456      20.047001      20.857         19124.595      5159.0904      5737.7633      7087.3963      99.896934     -2510.5716      191.39795    
  26723500   264.92734     -350.00598     -272.3736      -349.97717      0              6108.5822      45.563526      20.047001      20.857         19051.035      7705.5803      2888.6877      7731.4787      250.7567       1032.7965     -140.90762    
  26724000   263.63919     -352.9929      -275.73798     -352.97669      0              4843.3048      45.611419      20.047001      20.857         19071.06       4884.3709      5287.966       4357.5774     -168.08409     -1442.1118     -736.34335    
  26724500   259.10739     -350.66024     -274.73329     -350.65183      0              6026.2204      45.816394      20.047001      20.857         19156.764      8234.2446      5120.074       4724.3426      494.27681      1177.2525     -1940.1047    
  26725000   266.88725     -350.56157     -272.35486     -350.5758       0              5756.2401      45.939883      20.047001      20.857         19208.398      8176.0738      3098.8178      5993.8287      1067.9676     -603.74037      594.41316    
  26725500   274.15843     -351.52066     -271.18326     -351.49691      0              8365.0296      45.703994      20.047001      20.857         19109.768      7700.2341      7436.4558      9958.3988     -167.04004     -1051.6502     -596.74529    
  26726000   257.77714     -347.94853     -272.41139     -347.95464      0              2218.9428      45.767556      20.047001      20.857         19136.344      1084.2002      3285.0158      2287.6125      678.10514      1188.9138     -1881.2704    
  26726500   268.14498     -349.72805     -271.15279     -349.74743      0              5367.4346      45.861621      20.047001      20.857         19175.675      6536.4669      5224.7521      4341.085       51.271377      1724.9941      562.63       
  26727000   265.15259     -349.72574     -272.02735     -349.70503      0              4704.4808      45.903021      20.047001      20.857         19192.985      5697.2978      3326.5586      5089.5859     -386.79908     -245.19912     -167.6819     
  26727500   264.8349      -347.90922     -270.30392     -347.91619      0              2892.4644      46.038665      20.047001      20.857         19249.701      1824.4461      4020.6168      2832.3305      989.56857      1468.9018      404.37024    
  26728000   259.83767     -347.66029     -271.51934     -347.68071      0              6085.9042      45.852077      20.047001      20.857         19171.684      5121.9265      6731.8131      6403.973       627.24478     -228.41178      376.71433    
  26728500   268.92289     -349.75041     -270.9472      -349.78066      0              5828.5599      45.815019      20.047001      20.857         19156.189      5876.2329      5717.8996      5891.5473     -464.13879      1721.6703      226.64339    
  26729000   265.77155     -348.50053     -270.62076     -348.4966       0              5514.0259      45.974437      20.047001      20.857         19222.845      8149.0231      3845.9082      4547.1465      368.99476     -70.848677     -33.49076     
  26729500   263.9021      -348.31449     -270.98253     -348.32538      0              4879.9427      45.693598      20.047001      20.857         19105.421      3073.8529      7700.0383      3865.937       778.72756      850.82825     -202.19343    
  26730000   270.97212     -348.70242     -269.29871     -348.70181      0              6352.3508      45.455633      20.047001      20.857         19005.923      7134.3333      3950.2372      7972.4819      511.48898     -2044.0535     -333.6309     
  26730500   261.10117     -349.87012     -273.35893     -349.86571      0              3804.8529      45.662898      20.047001      20.857         19092.585      4222.7476      3549.593       3642.2181      1328.9104      846.24783      781.20709    
  26731000   259.63384     -350.47444     -274.39322     -350.48225      0              5269.88        45.722811      20.047001      20.857         19117.635      7430.4553      3645.4191      4733.7657      127.60851     -44.255985     -1046.2803    
  26731500   268.68516     -349.72913     -270.99558     -349.74492      0              8403.3899      45.597481      20.047001      20.857         19065.232      8834.0296      8296.3303      8079.8098      337.67066      1659.1647     -532.80343    
  26732000   265.2564      -348.20416     -270.47535     -348.18294      0              4814.0162      45.471766      20.047001      20.857         19012.669      4936.6186      5449.7041      4055.7258     -1308.1922     -930.31322      1222.3012    
  26732500   268.89569     -348.55253     -269.75728     -348.54787      0              6296.8413      45.461298      20.047001      20.857         19008.291      6481.0145      6535.8629      5873.6467     -1462.3402     -242.31013     -123.13595    
  26733000   262.3577      -348.23895     -271.35955     -348.23846      0              6586.2656      45.444551      20.047001      20.857         19001.289      7254.5048      5617.2441      6887.0478      494.02744     -509.86219     -302.68546    
  26733500   268.60658     -350.39434     -271.68382     -350.42056      0              3875.2222      45.57091       20.047001      20.857         19054.122      3478.838       4667.7638      3479.0647      1017.6882      147.66654     -583.72122    
  26734000   269.2529      -350.13665     -271.23673     -350.16769      0              5853.5937      45.593459      20.047001      20.857         19063.551      7418.5369      3946.9209      6195.3234      1490.5751     -983.66265      212.84996    
  26734500   268.04135     -348.26923     -269.72434     -348.2743       0              5189.1432      45.582603      20.047001      20.857         19059.012      5691.5018      4873.5322      5002.3958      1842.4132     -1912.4721      1381.5865    
  26735000   271.98421     -347.69293     -267.99265     -347.66559      0              6879.4367      45.545382      20.047001      20.857         19043.449      7560.9695      6997.7791      6079.5615      1270.6544      173.69087      294.32792    
  26735500   264.85037     -348.11111     -270.50128     -348.11236      0              6683.2752      45.824848      20.047001      20.857         19160.299      6207.006       6964.8933      6877.9264     -488.75401     -1555.952       81.56946     
  26736000   270.58858     -350.54346     -271.25215     -350.53502      0              3815.5282      45.696344      20.047001      20.857         19106.569      3699.4996      3769.4405      3977.6446      1482.703       512.33578     -706.26835    
  26736500   258.86337     -351.55422     -275.69877     -351.55069      0              6260.7266      45.251498      20.047001      20.857         18920.57       6576.1455      6262.1795      5943.8549     -555.76349      1706.8784      397.58808    
  26737000   270.06612     -349.08125     -269.94303     -349.09548      0              7066.7318      45.40533       20.047001      20.857         18984.89       8591.0404      6192.9657      6416.1893     -386.48462     -1076.2159      30.940647    
  26737500   264.04084     -348.66038     -271.28776     -348.67214      0              4244.1516      45.747898      20.047001      20.857         19128.125      1530.4373      7619.0006      3583.017      -1130.3089      1425.7394     -2061.578     
  26738000   263.76913     -351.53282     -274.23983     -351.54837      0              4305.7637      45.777697      20.047001      20.857         19140.584      5378.446       4012.3493      3526.4958     -251.41995      312.05274     -355.96801    
  26738500   266.59539     -350.91961     -272.79843     -350.922        0              7174.3926      45.632701      20.047001      20.857         19079.958      9476.1138      5744.074       6302.9901     -125.22609     -1492.7876      117.96719    
  26739000   263.4376      -348.37008     -271.17423     -348.37417      0              7112.3421      45.681565      20.047001      20.857         19100.39       6755.2779      7764.5129      6817.2354     -1002.963       675.79077     -388.87794    
  26739500   258.44041     -350.3405      -274.60899     -350.32406      0              3940.4519      45.785341      20.047001      20.857         19143.78       5053.0431      2675.8054      4092.5072     -420.89869      297.17991      646.64406    
  26740000   257.79746     -351.68109     -276.13799     -351.68013      0              5330.6231      45.729544      20.047001      20.857         19120.451      5567.4444      5417.0706      5007.3543     -294.41235      1642.8828     -479.28787    
  26740500   270.25088     -350.64109     -271.44873     -350.63876      0              5332.4525      45.601854      20.047001      20.857         19067.061      7789.8536      5044.0214      3163.4823      38.902517      544.7957       1545.3091    
  26741000   259.70546     -350.90551     -274.8033      -350.92673      0              5454.0086      45.529795      20.047001      20.857         19036.932      6568.6138      4419.8347      5373.5773      68.624944     -1087.0058     -1453.3561    
  26741500   264.37649     -349.98549     -272.51452     -349.99485      0              4693.4208      45.654655      20.047001      20.857         19089.138      4783.2548      5346.6134      3950.3941      244.53998      455.58615     -752.69791    
  26742000   265.06129     -350.28625     -272.61461     -350.32921      0              3736.2604      45.777747      20.047001      20.857         19140.605      4502.652       3180.9458      3525.1835     -245.36396     -598.42694     -1575.369     
  26742500   262.91282     -350.85314     -273.81107     -350.83203      0              7072.4752      45.667549      20.047001      20.857         19094.529      8882.0469      6390.8422      5944.5364     -126.99588     -334.76312     -157.10967    
  26743000   253.58098     -350.34553     -276.038       -350.33486      0              4582.6994      45.735125      20.047001      20.857         19122.784      3792.1827      3200.8084      6755.1071      1251.6167     -111.99301     -1380.48      
  26743500   266.9987      -352.38352     -274.14416     -352.36859      0              6381.7951      45.802087      20.047001      20.857         19150.782      8293.4791      2932.1399      7919.7662     -968.40426     -1936.7424      514.23823    
  26744000   257.79452     -349.65778     -274.11554     -349.66693      0              6323.3904      45.635962      20.047001      20.857         19081.322      5834.6936      6841.8334      6293.6441     -809.05031      929.93872     -740.87237    
  26744500   263.67562     -349.28341     -272.01782     -349.28889      0              5107.6654      45.593344      20.047001      20.857         19063.503      7182.1059      3203.077       4937.8133     -258.28246     -1214.6358      1040.7774    
  26745000   262.64397     -349.35829     -272.39501     -349.39779      0              4937.5383      45.980616      20.047001      20.857         19225.429      5934.1664      3372.829       5505.6195      324.11219      269.93489      1027.1942    
  26745500   256.63254     -352.07188     -276.87015     -352.06858      0              3441.6664      46.213949      20.047001      20.857         19322.99       3819.7004      3634.9806      2870.3181      1621.5943     -307.61717     -1749.0996    
  26746000   264.44834     -348.11302     -270.621       -348.13562      0              5607.9033      46.193553      20.047001      20.857         19314.462      6710.006       6215.4536      3898.2503      766.09178     -673.49644     -66.517707    
  26746500   269.54387     -352.49766     -273.51248     -352.48866      0              6580.7924      45.894797      20.047001      20.857         19189.546      5181.9838      8856.3988      5703.9947     -874.04027     -174.36393     -31.706788    
  26747000   259.20084     -350.65401     -274.69968     -350.66377      0              6441.9306      45.629975      20.047001      20.857         19078.819      6566.6355      7315.4944      5443.662      -1480.3321      292.22116     -834.89004    
  26747500   263.64338     -349.45459     -272.19845     -349.43797      0              6058.1195      45.543805      20.047001      20.857         19042.789      6640.6528      6790.6818      4743.024       867.89025      181.10457      3152.3047    
  26748000   262.97873     -351.77952     -274.71814     -351.78784      0              7027.0479      45.85875       20.047001      20.857         19174.474      7808.5616      7744.7839      5527.7983     -1122.9217     -201.61558     -104.6655     
  26748500   260.52255     -348.73488     -272.39325     -348.75547      0              5170.3619      45.92454       20.047001      20.857         19201.982      5309.2674      6544.7908      3657.0275      830.33871      578.36374     -1534.5956    
  26749000   266.69515     -348.57283     -270.42241     -348.56856      0              5481.0977      45.413962      20.047001      20.857         18988.5        7517.4581      3024.8051      5901.0298      1019.2794     -1219.7161     -1005.5396    
  26749500   268.04104     -350.4657      -271.9209      -350.49169      0              8184.5924      45.623178      20.047001      20.857         19075.977      10218.79       4841.3601      9493.6276      15.323872      1289.5551      2235.3242    
  26750000   268.61016     -352.76226     -274.05069     -352.77539      0              4711.5966      45.83566       20.047001      20.857         19164.82       2534.2258      6278.6815      5321.8825      1243.8344      658.48208     -966.33071    
  26750500   266.09954     -349.44314     -271.46726     -349.45877      0              5266.7439      45.722912      20.047001      20.857         19117.678      4302.3599      7924.8334      3573.0385     -586.79761     -1022.9034      1977.4564    
  26751000   263.42428     -348.43921     -271.24727     -348.4176       0              5234.6045      45.606884      20.047001      20.857         19069.164      5004.1499      5153.3541      5546.3096      43.785762     -1698.446       803.43299    
  26751500   268.66775     -350.82801     -272.09956     -350.7991       0              6087.9869      45.523322      20.047001      20.857         19034.225      6507.5801      5184.6983      6571.6824      656.08149      112.44015      258.28751    
  26752000   261.77495     -348.28311     -271.57448     -348.28986      0              4649.9555      45.687456      20.047001      20.857         19102.853      3645.3069      5710.9479      4593.6116      899.01044      23.899846      166.72567    
  26752500   258.08449     -349.02145     -273.39424     -349.05136      0              4532.7321      45.855561      20.047001      20.857         19173.141      4035.5644      6125.3709      3437.261      -985.19983     -1154.3823      1057.5119    
  26753000   268.28395     -350.97504     -272.35906     -350.97294      0              5574.2401      45.568572      20.047001      20.857         19053.145      8059.8318      4530.6337      4132.2549      757.96246     -178.64791      813.3652     
  26753500   265.59373     -351.38375     -273.55609     -351.3881       0              5406.6797      45.869431      20.047001      20.857         19178.94       7388.7755      6019.3085      2811.9552      8.8478353      235.23721     -1047.585     
  26754000   265.15748     -348.1747      -270.47487     -348.19095      0              2930.1491      45.92159       20.047001      20.857         19200.749      2628.8887      2564.4701      3597.0885     -647.25922     -159.12214      1704.5005    
  26754500   264.49222     -350.7767      -273.27182     -350.74993      0              3160.6575      45.624933      20.047001      20.857         19076.711      3840.41        2909.8681      2731.6945      543.12274     -1140.3402     -1194.7773    
  26755000   257.73956     -350.22936     -274.70323     -350.19455      0              8231.0583      45.46098       20.047001      20.857         19008.159      7925.5798      7903.6135      8863.9816      944.67354      69.729182      591.51912    
  26755500   260.12743     -348.72607     -272.50021     -348.71866      0              7310.0416      45.403013      20.047001      20.857         18983.922      8951.2325      7351.3583      5627.5339     -745.26578     -1210.0735     -1229.0437    
  26756000   259.85414     -352.213       -276.06722     -352.19064      0              4758.6911      45.365703      20.047001      20.857         18968.321      6047.0581      4365.9726      3863.0425      983.53879      1494.8157      857.57443    
  26756500   262.05367     -351.8376      -275.04729     -351.82346      0              6134.3252      45.530702      20.047001      20.857         19037.311      8497.13        4927.2777      4978.5677      1240.2364     -1028.8845     -1619.6774    
  26757000   263.77451     -351.59874     -274.30418     -351.58811      0              5603.8321      45.729657      20.047001      20.857         19120.498      5558.648       3169.872       8082.9765     -376.88136      104.94735      61.212984    
  26757500   263.78414     -352.9412      -275.64381     -352.90423      0              3701.6339      45.481098      20.047001      20.857         19016.57       1751.482       5297.4384      4055.9812     -1112.8572      874.83625      494.68376    
  26758000   265.92591     -351.6241      -273.6991      -351.61267      0              7318.7032      45.447403      20.047001      20.857         19002.482      8713.7628      5948.0666      7294.2802      1440.9778     -256.03522     -3045.422     
  26758500   265.69745     -351.02271     -273.16466     -350.98913      0              3716.7517      45.758698      20.047001      20.857         19132.64       3203.7843      4612.9942      3333.4765     -75.868457     -401.89266      295.82903    
  26759000   265.21966     -349.41409     -271.69604     -349.40859      0              5502.6907      45.587292      20.047001      20.857         19060.972      7288.5613      3308.1823      5911.3285      655.66352     -640.62054     -120.23492    
  26759500   269.37153     -350.62788     -271.6932      -350.63098      0              7278.3802      45.373105      20.047001      20.857         18971.416      6642.6038      7955.0651      7237.4718     -224.67624     -2577.267       112.91024    
  26760000   273.61648     -351.65153     -271.47294     -351.65031      0              5615.8593      45.662353      20.047001      20.857         19092.357      5937.9001      5794.3654      5115.3123     -875.23301     -117.73685     -1670.3454    
  26760500   266.54017     -349.9982      -271.8932      -349.99736      0              4997.9568      46.004354      20.047001      20.857         19235.354      4543.1439      6332.0504      4118.6761     -389.67958      867.47276      934.2821     
  26761000   254.38026     -352.05688     -277.51513     -352.04264      0              5302.9466      45.748851      20.047001      20.857         19128.523      6264.8163      3817.1143      5826.9092     -670.97286      330.01021     -1738.8564    
  26761500   261.69095     -351.79006     -275.10604     -351.75903      0              7756.8362      45.445597      20.047001      20.857         19001.727      7765.4295      7276.187       8228.8921     -902.26067      742.6294       709.76661    
  26762000   269.17804     -349.68142     -270.80344     -349.68645      0              5895.9761      45.530383      20.047001      20.857         19037.177      6430.0865      6138.9776      5118.8642      20.752357     -994.25675     -215.94261    
  26762500   262.83526     -350.18799     -273.16865     -350.17776      0              4530.3569      45.835245      20.047001      20.857         19164.646      4523.5074      5187.9665      3879.5968      1080.7299     -999.48995     -7.3987383    
  26763000   276.01206     -352.4793      -271.59873     -352.50306      0              6022.0721      45.990998      20.047001      20.857         19229.77       5688.5802      5764.2905      6613.3457     -779.10043      704.163       -1393.9557    
  26763500   270.69373     -356.58003     -277.2579      -356.61493      0              2888.2666      45.925955      20.047001      20.857         19202.574      3122.4715      2465.4693      3076.8589      814.38643     -1740.4797     -455.5769     
  26764000   263.93764     -350.74204     -273.39967     -350.75194      0              5526.4505      45.623306      20.047001      20.857         19076.03       5015.3092      6278.1049      5285.9375     -855.58246      881.49632     -1761.4609    
  26764500   265.89883     -349.15247     -271.2354      -349.18812      0              4804.1153      45.828135      20.047001      20.857         19161.674      4683.5643      7106.664       2622.1175     -296.85032     -1828.8167     -100.28349    
  26765000   268.52805     -350.8043      -272.11679     -350.83942      0              4988.7359      45.988645      20.047001      20.857         19228.786      6336.2826      3217.8411      5412.0839      326.20787      1362.5001      757.66883    
  26765500   260.86317     -353.08892     -276.64747     -353.10787      0              5085.9728      45.956574      20.047001      20.857         19215.377      6625.261       2063.6658      6568.9916      817.09674      45.70583       330.27213    
  26766000   271.51428     -354.11619     -274.55361     -354.12157      0              5679.6605      45.94597       20.047001      20.857         19210.943      5002.1014      5083.9404      6952.9398      769.50557     -1296.914      -123.48119    
  26766500   266.83905     -354.39357     -276.20099     -354.41104      0              5869.0227      45.880131      20.047001      20.857         19183.414      8862.8822      4627.6339      4116.5521     -1335.6069     -1259.1752     -1090.1367    
  26767000   266.12682     -354.87846     -276.89459     -354.88268      0              5025.3677      45.787112      20.047001      20.857         19144.521      3673.047       6874.5197      4528.5365     -730.1198      -1073.3714      177.04819    
  26767500   261.86697     -351.88903     -275.15343     -351.92322      0              4687.911       45.635166      20.047001      20.857         19080.989      5187.8665      5765.1982      3110.6682      487.4655       960.24429     -845.01924    
  26768000   267.28898     -353.40254     -275.07811     -353.41585      0              6646.4807      45.575156      20.047001      20.857         19055.898      3405.4288      7611.7716      8922.2417     -855.42879     -76.058902     -1191.1484    
  26768500   264.45422     -352.16705     -274.6733      -352.13792      0              4189.956       45.588992      20.047001      20.857         19061.683      4124.9595      5158.6291      3286.2793      1066.495       1168.0179     -754.89102    
  26769000   271.3238      -352.28583     -272.77907     -352.3152       0              6031.0954      45.722476      20.047001      20.857         19117.495      6042.0677      4587.2837      7463.9346     -1065.9053     -64.904415      875.11276    
  26769500   266.51949     -352.19394     -274.095       -352.17051      0              6440.3021      45.562894      20.047001      20.857         19050.771      7682.0264      4023.0833      7615.7965     -986.85628     -34.941296      694.70445    
  26770000   267.64595     -351.77221     -273.34318     -351.76809      0              6831.1931      45.337885      20.047001      20.857         18956.69       9098.2048      5325.7934      6069.581      -68.624731      565.15258     -555.04776    
  26770500   264.92356     -350.73636     -273.10508     -350.74257      0              5759.9768      45.580511      20.047001      20.857         19058.137      5643.8178      4672.8811      6963.2314      826.61243     -1410.3517     -1578.7692    
  26771000   255.12308     -351.49696     -276.73754     -351.5198       0              6584.8132      45.974906      20.047001      20.857         19223.041      8177.5452      6524.8792      5052.0151      1887.5568      554.24788     -116.96975    
  26771500   262.82037     -351.12579     -274.11082     -351.12362      0              5932.6324      45.98604       20.047001      20.857         19227.697      4531.077       5643.4543      7623.3658      690.09186     -72.114108      17.48325     
  26772000   264.31162     -352.51112     -275.05916     -352.50478      0              6377.3256      45.560383      20.047001      20.857         19049.721      7527.0864      5546.9293      6057.961       270.8799      -55.928389      341.58393    
  26772500   262.21209     -351.52114     -274.68441     -351.55586      0              7465.097       45.597224      20.047001      20.857         19065.125      7518.6728      7850.8394      7025.7787      1380.6549      775.84235     -309.07486    
  26773000   271.00317     -351.68378     -272.27098     -351.70108      0              3999.8962      46.047363      20.047001      20.857         19253.337      5211.6458      2355.8391      4432.2038     -1417.4442     -96.980746     -227.9206     
  26773500   261.78027     -348.68411     -271.97392     -348.70736      0              5838.506       45.967138      20.047001      20.857         19219.794      6043.3569      4612.0564      6860.1047     -1093.2427     -75.610306      1531.2158    
  26774000   264.61189     -348.86821     -271.32826     -348.90634      0              5936.6829      45.640931      20.047001      20.857         19083.4        5715.5174      4763.9193      7330.612       1441.3124     -931.15948     -515.7716     
  26774500   267.11517     -351.50992     -273.23643     -351.52181      0              7332.0687      45.709653      20.047001      20.857         19112.134      10009.895      6406.9967      5579.3144     -10.161075     -27.428415      404.8774     
  26775000   266.64098     -351.73668     -273.60214     -351.70945      0              6613.4527      45.893737      20.047001      20.857         19189.103      4713.8536      8638.6195      6487.8852     -262.71608      1408.5891      1055.0401    
  26775500   258.95647     -350.86164     -274.97891     -350.87998      0              5883.3218      45.954149      20.047001      20.857         19214.362      5940.5158      7199.1338      4510.3157      498.15663     -677.98789      26.443125    
  26776000   267.88691     -352.06306     -273.56342     -352.05959      0              7412.0535      45.661317      20.047001      20.857         19091.923      8409.8163      7564.2455      6262.0988     -1025.0491     -23.738289      219.93734    
  26776500   260.06894     -349.57757     -273.36886     -349.577        0              5279.394       45.495452      20.047001      20.857         19022.572      8074.7386      3435.8634      4327.5798      1958.7952      332.53761     -39.074125    
  26777000   260.03647     -351.10443     -274.90523     -351.08127      0              4881.6297      45.509377      20.047001      20.857         19028.394      2387.6049      6305.7655      5951.5187     -1144.4463      889.36542      365.71547    
  26777500   257.99352     -350.0558      -274.45525     -350.03995      0              6335.8068      45.613751      20.047001      20.857         19072.035      9084.4347      3268.1723      6654.8134      1297.3081     -157.54359     -591.45541    
  26778000   267.57472     -351.33676     -272.92861     -351.3007       0              6997.794       45.520523      20.047001      20.857         19033.055      7207.0059      7570.6538      6215.7222     -792.33578     -109.77894     -946.98328    
  26778500   272.67967     -349.78977     -269.88569     -349.73514      0              6915.3484      45.512789      20.047001      20.857         19029.821      8988.6524      6978.9527      4778.4399      850.37858     -573.31264     -97.115135    
  26779000   260.29102     -352.62064     -276.34685     -352.5493       0              4211.1929      45.534978      20.047001      20.857         19039.098      3805.6876      3318.2204      5509.6706     -357.24776     -63.220666      1739.5224    
  26779500   266.50544     -351.57168     -273.47686     -351.54985      0              6938.8098      45.63654       20.047001      20.857         19081.564      7190.73        6194.1715      7431.528      -729.59218     -12.097878     -365.93207    
  26780000   258.46913     -351.02174     -275.28182     -350.99995      0              6067.3327      45.703135      20.047001      20.857         19109.409      6804.9016      7173.6551      4223.4414      440.76871     -803.69901      262.36771    
  26780500   267.91855     -351.73677     -273.22787     -351.67825      0              5170.5976      45.661131      20.047001      20.857         19091.846      4384.5337      7130.5108      3996.7483     -313.62697      1529.8176      315.11475    
  26781000   267.57123     -349.68986     -271.28273     -349.63648      0              5153.3031      45.391132      20.047001      20.857         18978.954      5157.7455      5755.7278      4546.4359      388.90053     -1087.9427      2209.4957    
  26781500   265.36321     -351.11925     -273.35914     -351.09901      0              6810.2284      45.543979      20.047001      20.857         19042.862      8257.6945      5378.1546      6794.836       108.75318     -312.33272      708.86394    
  26782000   266.95871     -351.41396     -273.18632     -351.40289      0              3890.5074      45.995351      20.047001      20.857         19231.59       3727.9796      2815.3425      5128.2001      160.66048      171.71322      1855.3059    
  26782500   263.91647     -349.8128      -272.47663     -349.75282      0              5530.8653      45.58134       20.047001      20.857         19058.484      4671.4892      6661.4594      5259.6474     -404.02303      267.4571       858.91656    
  26783000   262.18178     -351.14168     -274.31384     -351.07075      0              6187.0945      45.151813      20.047001      20.857         18878.89       6809.0228      5869.5853      5882.6753     -1029.8703      377.50722     -505.61696    
  26783500   269.9329      -351.66834     -272.56916     -351.6142       0              5147.2961      45.355819      20.047001      20.857         18964.189      5064.9643      4762.3324      5614.5916      567.21081      1478.4392      1127.8432    
  26784000   257.99902     -350.29482     -274.69266     -350.23002      0              6038.8612      45.630707      20.047001      20.857         19079.125      7095.7254      7252.4668      3768.3913     -1006.5694      66.736585      407.34172    
  26784500   261.80448     -351.71849     -275.00121     -351.68185      0              5028.1661      45.793252      20.047001      20.857         19147.088      4791.7125      5594.1152      4698.6704     -391.1497      -43.151667     -527.87524    
  26785000   264.0622      -351.79334     -274.41447     -351.75626      0              5322.7329      45.647897      20.047001      20.857         19086.312      6983.8755      3992.8772      4991.4461     -1154.6179     -1106.6832     -1346.8335    
  26785500   260.47973     -352.74916     -276.42007     -352.68604      0              4792.9102      45.48948       20.047001      20.857         19020.075      7883.4073      3472.0489      3023.2746      368.89069      1006.7078      882.71189    
  26786000   266.27987     -353.3124      -275.28368     -353.2588       0              5111.7821      45.612706      20.047001      20.857         19071.598      8173.6392      2854.0561      4307.6512      588.3433       1401.2998      258.38354    
  26786500   259.78576     -352.58495     -276.45921     -352.58319      0              4057.6376      45.970611      20.047001      20.857         19221.246      3829.174       4205.1279      4138.6108     -1105.2655     -698.53631     -211.6445     
  26787000   266.14125     -351.87436     -273.88626     -351.85878      0              5695.7098      45.805113      20.047001      20.857         19152.048      6738.532       6818.427       3530.1704      399.13792     -86.538094     -860.37935    
  26787500   260.59858     -351.27734     -274.91342     -351.2483       0              6174.0435      45.679987      20.047001      20.857         19099.73       7038.1686      5614.5796      5869.3824     -411.15882      1155.7185     -503.51525    
  26788000   268.65936     -350.52962     -271.80363     -350.53334      0              5177.7856      45.731498      20.047001      20.857         19121.268      4490.1397      5300.4965      5742.7208      1117.504      -1612.7124      498.33709    
  26788500   269.4799      -350.62005     -271.65362     -350.57107      0              4560.6871      45.693292      20.047001      20.857         19105.293      4722.8792      4293.691       4665.4911      850.81734     -1810.1795      177.12153    
  26789000   261.70424     -351.05948     -274.37157     -351.02173      0              4637.1976      45.750805      20.047001      20.857         19129.34       5981.2471      3499.7943      4430.5516     -444.36578     -707.85646      1101.5309    
  26789500   264.09639     -349.02867     -271.63978     -349.00212      0              4702.7582      45.666404      20.047001      20.857         19094.05       5150.84        3651.449       5305.9855      29.189113     -1733.2206      562.0576     
  26790000   271.12152     -351.05503     -271.60755     -350.98488      0              6271.5177      45.457632      20.047001      20.857         19006.759      6156.2555      4999.3422      7658.9556     -178.22157     -628.92639      2571.0317    
  26790500   268.74906     -349.65247     -270.90019     -349.60188      0              6966.6029      45.710687      20.047001      20.857         19112.566      8152.0579      7166.6041      5581.1467      136.89522      785.69146      784.14325    
  26791000   264.55725     -345.57728     -268.05334     -345.57951      0              4847.6713      46.076785      20.047001      20.857         19265.639      5214.9954      5205.0971      4122.9213     -690.19413      249.22897     -353.28663    
  26791500   265.66341     -348.67114     -270.82306     -348.60703      0              4695.0278      45.932984      20.047001      20.857         19205.513      3665.2102      5588.119       4831.7542     -1128.9052      277.277        593.04178    
  26792000   263.88857     -346.88178     -269.55379     -346.85586      0              6673.4385      45.444071      20.047001      20.857         19001.089      7517.214       6210.6293      6292.4722      586.05258      259.68439     -1593.7459    
  26792500   266.75439     -346.64815     -268.48037     -346.60432      0              5022.8699      45.538651      20.047001      20.857         19040.634      4571.1715      5337.0005      5160.4377     -1564.8347     -2639.806       269.51553    
  26793000   267.47466     -348.02369     -269.64486     -347.99381      0              4468.9261      45.786281      20.047001      20.857         19144.173      4184.7892      3390.1866      5831.8025      1251.2207     -37.873924      203.48504    
  26793500   268.14635     -349.96204     -271.38638     -349.94227      0              4679.1691      45.676574      20.047001      20.857         19098.303      4642.9874      4553.9499      4840.5698      795.02176     -1621.5096      1231.9249    
  26794000   260.76918     -349.05967     -272.64576     -349.02506      0              5518.4583      45.571259      20.047001      20.857         19054.268      6493.4062      6241.1345      3820.8343     -1369.4798     -169.79132      526.62846    
  26794500   263.35248     -350.00052     -272.82961     -349.94298      0              6714.935       45.568031      20.047001      20.857         19052.919      8664.1876      4625.8621      6854.7554     -300.10737     -622.84602      1327.3837    
  26795000   261.38844     -349.07836     -272.48298     -349.04158      0              6493.5134      45.704452      20.047001      20.857         19109.959      7769.9072      4901.7867      6808.8463     -526.42656      1496.713       830.8118     
  26795500   261.34067     -350.21728     -273.63591     -350.15059      0              3123.5709      45.733191      20.047001      20.857         19121.976      3872.2523      1634.8176      3863.6429      558.39101      520.54686      388.79665    
  26796000   269.08919     -349.77124     -270.9193      -349.69594      0              6373.9229      45.742504      20.047001      20.857         19125.869      7432.4692      5369.6545      6319.645       101.49377      1869.1107     -907.55656    
  26796500   268.18353     -347.57399     -268.98744     -347.54489      0              5209.1579      45.910836      20.047001      20.857         19196.253      6573.3468      4801.5101      4252.6168      194.11321     -2000.1394     -316.31799    
  26797000   267.09523     -350.15144     -271.88379     -350.11784      0              4871.3261      46.038294      20.047001      20.857         19249.545      3506.8615      5343.79        5763.3269      133.64328      915.03854     -600.04821    
  26797500   263.86029     -352.06477     -274.74506     -352.01338      0              5518.8328      45.848926      20.047001      20.857         19170.367      6079.8461      4639.2919      5837.3604      212.53281     -604.37007     -896.82466    
  26798000   261.71402     -349.12354     -272.43276     -349.11572      0              6498.4747      45.855212      20.047001      20.857         19172.995      6268.3349      6006.4064      7220.6827      427.99229      559.53438     -1248.3503    
  26798500   263.69341     -351.29481     -274.02401     -351.24484      0              5480.7063      45.98501       20.047001      20.857         19227.266      4115.0318      5511.1663      6815.9207      60.306304     -1148.2544     -1720.2483    
  26799000   267.85749     -350.62306     -272.13205     -350.55427      0              5836.1702      45.690641      20.047001      20.857         19104.185      10009.014      2943.7073      4555.7897      444.51609     -1408.5812      535.54187    
  26799500   264.89365     -350.22097     -272.59846     -350.23233      0              7364.075       45.574188      20.047001      20.857         19055.493      7198.8401      8064.3411      6829.0437     -924.55642      16.737147      1242.1144    
  26800000   270.06708     -349.0731      -269.9346      -349.0413       0              7935.2311      45.732749      20.047001      20.857         19121.791      8021.3866      7592.801       8191.5058      199.97204      605.4086      -2195.9232    
  26800500   270.63397     -348.31565     -269.01104     -348.28109      0              3862.7266      45.815178      20.047001      20.857         19156.256      3414.2935      4492.5537      3681.3327      868.53839      1181.964       1514.4702    
  26801000   269.76171     -347.55325     -268.50424     -347.48358      0              6649.9788      45.586649      20.047001      20.857         19060.703      8977.0655      5304.2202      5668.6506      224.26256     -538.57062     -1166.9593    
  26801500   265.8681      -347.90202     -269.99396     -347.89209      0              5085.4859      45.602858      20.047001      20.857         19067.481      5461.7956      2961.3855      6833.2764     -792.01554      1289.1126      1811.9471    
  26802000   261.03026     -349.26813     -272.77772     -349.21129      0              5282.0994      45.746578      20.047001      20.857         19127.573      5998.3948      4269.4162      5578.4873     -234.6421       700.07328      1193.0257    
  26802500   266.78378     -350.0755      -271.89911     -350.02654      0              3324.4994      45.830149      20.047001      20.857         19162.516      1994.8671      5137.9271      2840.704       1179.6401     -621.91575     -308.95345    
  26803000   276.87381     -349.96334     -268.83024     -349.87562      0              7742.0038      45.630774      20.047001      20.857         19079.153      7608.6448      9108.6203      6508.7463      1111.0797     -650.47106     -174.06841    
  26803500   265.03387     -348.10385     -270.44024     -348.0708       0              6284.6421      45.450599      20.047001      20.857         19003.818      7367.6574      6434.9727      5051.2964     -612.07709     -251.96498      184.20969    
  26804000   272.52495     -351.42283     -271.56409     -351.39723      0              7085.2594      45.744287      20.047001      20.857         19126.615      8015.1189      6203.9637      7036.6956     -165.29858      148.18185      191.59514    
  26804500   266.93656     -353.73297     -275.51182     -353.66165      0              5271.5681      46.091219      20.047001      20.857         19271.674      6292.7885      4122.1372      5399.7786      145.82888      1311.9965      136.56003    
  26805000   268.35639     -351.31187     -272.67466     -351.24104      0              4201.3741      45.711158      20.047001      20.857         19112.763      4427.0211      3655.1471      4521.9541     -737.6315       707.0724      -2008.17      
  26805500   260.16768     -352.20242     -275.96477     -352.13579      0              5715.144       45.363333      20.047001      20.857         18967.33       5631.81        5041.0104      6472.6115     -732.19846      122.62643      1342.5975    
  26806000   274.40386     -351.9892      -271.57989     -351.94726      0              5282.2464      45.5528        20.047001      20.857         19046.55       6265.9952      3895.078       5685.6662      851.64019     -407.10738      1261.8163    
  26806500   252.68276     -349.28883     -275.24451     -349.29795      0              5133.5041      45.969181      20.047001      20.857         19220.648      6801.9105      5278.4997      3320.102      -939.68882      547.11478     -1133.8517    
  26807000   258.91007     -350.04761     -274.17848     -350.01178      0              4816.7612      45.704684      20.047001      20.857         19110.056      6541.8682      1858.657       6049.7583     -229.80773     -1170.0045     -729.1606     
  26807500   258.67833     -353.43472     -277.6335      -353.38217      0              5530.6584      45.429804      20.047001      20.857         18995.123      6556.3243      4277.9877      5757.6633      1020.7155      886.9744       489.06652    
  26808000   259.61984     -352.39662     -276.3195      -352.32291      0              3277.0008      45.537621      20.047001      20.857         19040.204      1463.236       5253.1031      3114.6634     -780.12768     -61.105115     -655.66059    
  26808500   270.73143     -349.43574     -270.10257     -349.4165       0              5076.4098      45.829804      20.047001      20.857         19162.371      5373.531       4539.3613      5316.3371      1451.0042      258.34512      1.3715754    
  26809000   258.26125     -349.60935     -273.93035     -349.54181      0              6003.4926      45.717859      20.047001      20.857         19115.565      7822.0227      4020.4607      6167.9944     -11.01648      -741.35051      804.39917    
  26809500   264.86035     -351.02538     -273.41262     -350.99288      0              6206.1788      45.7646        20.047001      20.857         19135.108      7522.3655      3670.3559      7425.8149     -334.65547     -7.3244164      1438.2903    
  26810000   264.31629     -350.90512     -273.45179     -350.87897      0              6764.7105      45.995465      20.047001      20.857         19231.638      7260.7673      7390.1904      5643.1738     -293.19478     -731.47067     -505.86469    
  26810500   255.44299     -352.78053     -277.92737     -352.67821      0              4144.5324      45.77245       20.047001      20.857         19138.39       3794.9811      2534.2153      6104.4009      1176.6484      874.16505      31.180736    
  26811000   262.09788     -352.7596      -275.95634     -352.674        0              4765.0139      45.522817      20.047001      20.857         19034.014      4567.1809      2995.9594      6731.9013      465.92244     -1201.8379     -1327.9345    
  26811500   268.41105     -349.8506      -271.19738     -349.77078      0              4655.262       45.760464      20.047001      20.857         19133.379      2821.9134      5846.077       5297.7957      927.29369      68.938355      2062.7883    
  26812000   267.23938     -351.00445     -272.69456     -350.9436       0              3653.5863      45.875277      20.047001      20.857         19181.385      7959.9594     -417.01336      3417.8129     -11.237202     -167.98502     -531.10855    
  26812500   267.63451     -351.22339     -272.79771     -351.13857      0              5336.3314      45.575083      20.047001      20.857         19055.867      6179.5089      4455.9773      5373.5078     -65.890754      306.50853      925.62655    
  26813000   269.7159      -350.39981     -271.36422     -350.31695      0              7432.8265      45.298259      20.047001      20.857         18940.122      7879.632       7811.4332      6607.4142      924.54025     -485.20687      2175.6746    
  26813500   259.62251     -349.97506     -273.89716     -349.88451      0              5083.6453      45.746541      20.047001      20.857         19127.557      5297.1449      6156.977       3796.8139     -175.19861     -53.991616      987.41138    
  26814000   262.57648     -350.54601     -273.6025      -350.49642      0              7068.6664      45.968124      20.047001      20.857         19220.206      7015.016       6677.5064      7513.477      -2533.9975     -211.50379      1111.4195    
  26814500   263.50375     -353.02694     -275.81171     -352.9725       0              5404.5606      45.579477      20.047001      20.857         19057.704      5414.4726      5821.6252      4977.5841      964.1124       590.03501      174.72817    
  26815000   260.70357     -350.14618     -273.75149     -350.06068      0              4379.3646      45.38516       20.047001      20.857         18976.457      4666.7095      4439.7232      4031.661       1336.5577     -163.06609      1470.7909    
  26815500   267.20483     -353.65889     -275.35913     -353.57571      0              6222.0441      45.478848      20.047001      20.857         19015.63       7032.2802      5367.6364      6266.2157      833.41933      195.42889      467.43323    
  26816000   256.21865     -352.86899     -277.78853     -352.80295      0              5118.3271      45.868242      20.047001      20.857         19178.443      6749.2356      4252.3061      4353.4397     -1085.5918     -1155.175       120.24059    
  26816500   255.08277     -351.48272     -276.73511     -351.43989      0              5160.0838      45.823453      20.047001      20.857         19159.716      5145.1519      5898.4531      4436.6462     -323.57142     -1193.5702      1713.8281    
  26817000   262.07343     -352.69618     -275.90009     -352.61143      0              6699.1274      45.404288      20.047001      20.857         18984.455      6830.8055      8333.0574      4933.5194     -1288.1429     -1793.5963     -1372.8904    
  26817500   263.31734     -350.47235     -273.31175     -350.42075      0              6668.5435      45.460968      20.047001      20.857         19008.154      6856.9341      6310.7432      6837.9532     -604.33957     -1407.4515      422.99995    
  26818000   270.68512     -351.76173     -272.44213     -351.69092      0              5241.2449      45.707944      20.047001      20.857         19111.419      6278.2509      6206.2243      3239.2595     -900.09336      216.11311      251.57662    
  26818500   275.56356     -351.12589     -270.37674     -351.08785      0              6591.4173      45.712119      20.047001      20.857         19113.165      4184.609       8807.0669      6782.5761      1614.7801      1904.9092      874.05768    
  26819000   268.74707     -350.78013     -272.02843     -350.70817      0              5348.3894      45.470682      20.047001      20.857         19012.215      6184.3325      4837.4976      5023.3382     -808.3356      -252.75315     -1244.9076    
  26819500   261.71226     -351.16988     -274.47962     -351.16132      0              4188.804       45.767074      20.047001      20.857         19136.143      4162.5208      3916.5571      4487.3341     -732.97134     -1384.7334      1967.5679    
  26820000   266.20252     -352.53484     -274.52879     -352.50446      0              6067.4637      45.923267      20.047001      20.857         19201.45       8000.5757      4487.583       5714.2326      226.86319     -2262.4673     -1642.8264    
  26820500   265.64448     -348.58937     -270.74683     -348.55845      0              4310.1485      45.805058      20.047001      20.857         19152.025      5718.4107      3826.2587      3385.7763      451.87442     -343.18744     -23.91096     
  26821000   272.11262     -351.64904     -271.91113     -351.64144      0              5349.4781      45.765673      20.047001      20.857         19135.557      5692.4884      5681.8254      4674.1205      650.9267       611.22055      659.87799    
  26821500   263.58187     -348.57882     -271.3407      -348.57172      0              3669.4594      45.65186       20.047001      20.857         19087.969      1081.3891      4671.7252      5255.2639      1213.5907     -252.52061      911.80372    
  26822000   260.68109     -349.19927     -272.81117     -349.20798      0              5924.1918      45.614416      20.047001      20.857         19072.313      5769.5022      6374.3161      5628.7572     -760.0735       1979.7044     -397.53114    
  26822500   267.03106     -349.54928     -271.30043     -349.52306      0              6306.1921      45.879179      20.047001      20.857         19183.016      7902.6019      6132.0432      4883.9312     -882.91345     -276.31177     -697.91804    
  26823000   268.14264     -350.46003     -271.88546     -350.46284      0              3181.1832      46.205693      20.047001      20.857         19319.538      4745.6966      3847.8946      949.95836     -1175.1393      370.53605      561.1272     
  26823500   268.36161     -350.2337      -271.59496     -350.20174      0              2812.6249      46.039056      20.047001      20.857         19249.864      2692.9318      1017.6004      4727.3425     -672.58447      1600.9881      2194.5624    
  26824000   261.07439     -350.71556     -274.21221     -350.69801      0              5299.1533      45.912354      20.047001      20.857         19196.887      6447.2259      4294.1175      5156.1166      1388.3163      1705.2401     -1281.3083    
  26824500   266.7947      -351.68584     -273.50626     -351.69135      0              4935.6685      45.910342      20.047001      20.857         19196.046      5831.5498      4607.6443      4367.8113     -858.66668      302.14571      799.53093    
  26825000   266.24311     -351.40793     -273.38997     -351.41999      0              6190.9658      45.972034      20.047001      20.857         19221.841      6353.4023      7745.2555      4474.2397     -375.50712     -2392.0686     -59.681759    
  26825500   264.14161     -350.40615     -273.00401     -350.4121       0              5311.2528      45.968166      20.047001      20.857         19220.224      4054.1722      6912.4146      4967.1717     -1533.054      -1113.7455     -1073.2584    
  26826000   265.84553     -351.15615     -273.2547      -351.10353      0              5630.6124      45.881036      20.047001      20.857         19183.793      6634.4368      5237.9549      5019.4455     -304.53156     -2303.228      -79.142332    
  26826500   276.92502     -352.31373     -271.16563     -352.29173      0              5956.6521      45.931248      20.047001      20.857         19204.787      5624.4086      5422.2219      6823.326      -752.11087     -636.38287      139.50557    
  26827000   264.36275     -351.12719     -273.66025     -351.09254      0              4465.1717      45.981485      20.047001      20.857         19225.792      5533.257       3924.8782      3937.3799      50.837236     -565.99906      1098.2105    
  26827500   269.16857     -352.31949     -273.44429     -352.27097      0              5800.6028      45.895926      20.047001      20.857         19190.018      7056.693       5926.5766      4418.5387     -68.990887     -1762.9397      164.5129     
  26828000   267.75076     -350.58803     -272.12829     -350.57919      0              6006.0981      45.9257        20.047001      20.857         19202.467      3549.1031      8722.8439      5746.3472      1666.422      -1607.248       600.94516    
  26828500   264.1881      -348.64534     -271.22957     -348.61476      0              7453.7336      45.641792      20.047001      20.857         19083.76       11059.678      6569.8453      4731.6779     -610.64927     -512.91493      695.33909    
  26829000   263.51345     -350.07569     -272.85762     -350.02698      0              5366.7005      45.768842      20.047001      20.857         19136.882      5398.7448      4162.8547      6538.5021     -808.94279      96.184306      1113.5989    
  26829500   276.2581      -349.62091     -268.66824     -349.60953      0              5549.333       45.880367      20.047001      20.857         19183.513      5531.1231      5408.8874      5707.9885      416.75939      2039.5718     -1162.1105    
  26830000   266.19061     -350.50726     -272.5047      -350.45646      0              5687.0086      45.704608      20.047001      20.857         19110.025      5842.4935      5224.3627      5994.1696     -912.78686      125.66245     -823.1266     
  26830500   262.59359     -350.41985     -273.47133     -350.34371      0              5769.232       45.551339      20.047001      20.857         19045.94       8990.8451      3423.3175      4893.5335     -670.1127       2055.0538      160.42211    
  26831000   265.13433     -350.46994     -272.7769      -350.40807      0              5238.6587      45.71075       20.047001      20.857         19112.592      5586.9339      4712.7586      5416.2838      173.84904      3.4651756     -924.58632    
  26831500   262.78153     -348.03191     -271.02832     -347.98233      0              2894.0476      45.837885      20.047001      20.857         19165.75       3655.9768      1556.7532      3469.4129     -585.25227      172.37344     -335.66082    
  26832000   266.0391      -346.51933     -268.56116     -346.50218      0              4336.0756      45.858144      20.047001      20.857         19174.221      5618.2651      1648.0842      5741.8775     -674.16811     -1167.4305      959.51916    
  26832500   271.01779     -351.03104     -271.61395     -350.9752       0              6997.8931      45.788834      20.047001      20.857         19145.241      6635.8596      6873.2309      7484.5887      913.50034     -785.91531     -119.2408     
  26833000   260.70965     -349.25887     -272.86241     -349.17212      0              4754.2672      45.569684      20.047001      20.857         19053.61       5807.3504      5588.5238      2866.9273     -675.07603      1433.9613      786.87906    
  26833500   261.65058     -348.17366     -271.50147     -348.12585      0              6807.508       45.550211      20.047001      20.857         19045.468      4273.998       9580.6836      6567.8422      261.62926     -178.7589       2423.5077    
  26834000   263.53196     -350.74771     -273.52422     -350.68959      0              5695.7196      45.601556      20.047001      20.857         19066.936      6768.0205      3952.3568      6366.7815     -53.164522      1658.9065      791.03754    
  26834500   262.26582     -350.3458      -273.49333     -350.29574      0              5836.4161      45.753002      20.047001      20.857         19130.259      6813.1956      8240.9822      2455.0704     -1662.2499      550.11677     -245.41033    
  26835000   255.85089     -351.76147     -276.78878     -351.68062      0              5521.3367      45.700602      20.047001      20.857         19108.349      7663.2244      3459.1389      5441.647      -416.56369     -924.96625     -737.32605    
  26835500   267.83974     -351.32621     -272.8404      -351.28198      0              5331.1205      45.91153       20.047001      20.857         19196.543      8740.9903      2552.0779      4700.2934      418.84959      637.561        860.28781    
  26836000   260.06694     -351.38495     -275.17682     -351.31666      0              4709.1118      46.215569      20.047001      20.857         19323.667      4533.4388      5902.9788      3690.9177      1046.3877     -519.47978     -765.47056    
  26836500   264.53188     -352.54055     -275.02405     -352.4725       0              4306.7877      45.979444      20.047001      20.857         19224.939      3035.7637      7359.5434      2525.0561      390.27415     -2220.8657      1411.6951    
  26837000   270.17349     -350.85213     -271.68245     -350.76685      0              5384.0731      45.526386      20.047001      20.857         19035.506      5184.8267      5916.1791      5051.2135     -76.82903       139.45881     -193.22225    
  26837500   259.25746     -348.96393     -272.993       -348.9111       0              5569.3371      45.608993      20.047001      20.857         19070.046      6683.0058      6408.9626      3616.0429     -639.17156      550.4922       283.43284    
  26838000   270.04573     -351.24508     -272.11284     -351.19813      0              4972.359       45.824016      20.047001      20.857         19159.951      6955.1395      4557.2926      3404.645       229.59106      1654.5335      197.1065     
  26838500   267.46199     -349.8595      -271.48437     -349.79537      0              4092.1471      45.906924      20.047001      20.857         19194.617      3584.2385      4283.3745      4408.8285      576.37401     -1285.7699     -349.05213    
  26839000   271.71471     -349.35463     -269.73333     -349.28555      0              4796.9512      45.741057      20.047001      20.857         19125.264      5630.8157      5461.4086      3298.6293      2419.4384      231.87228      2796.9963    
  26839500   266.8669      -349.35729     -271.15655     -349.31003      0              7599.0948      45.72234       20.047001      20.857         19117.439      7863.5057      6564.2079      8369.5708      813.09883      758.15585     -364.3209     
  26840000   265.1717      -346.31895     -268.61496     -346.25665      0              5575.56        45.899103      20.047001      20.857         19191.347      7221.1241      4131.6821      5373.8737     -1311.7899     -862.25206      1842.2981    
  26840500   271.12745     -349.7798      -270.33058     -349.74998      0              7215.5888      45.980454      20.047001      20.857         19225.361      9118.7323      6747.0967      5780.9374      1296.3592     -1434.1552     -652.52554    
  26841000   262.37139     -348.95426     -272.07085     -348.88151      0              5388.7092      45.943768      20.047001      20.857         19210.022      5628.3727      4154.0655      6383.6895      769.34892     -1014.6575      1967.1626    
  26841500   272.36904     -347.855       -268.04196     -347.76993      0              6284.8948      45.625749      20.047001      20.857         19077.052      7563.2153      5387.9613      5903.5078     -801.023        1010.8767     -1805.1797    
[...]
  27398500   263.10186     -350.95176     -273.8543      -350.97321      0              2926.5108      45.725195      20.047001      20.857         19118.632      4200.9022      1751.677       2826.9531     -359.03646     -366.63415     -1072.75      
  27399000   266.53386     -351.00288     -272.89973     -351.01277      0              6616.9885      45.233243      20.047001      20.857         18912.937      7656.8339      5035.1106      7159.0209      1519.3827      1016.8209      705.91076    
  27399500   270.37255     -349.97697     -270.74896     -349.97145      0              8203.13        45.404644      20.047001      20.857         18984.604      11146.122      6656.7104      6806.5579     -908.66438      77.232234      230.47915    
  27400000   268.44809     -352.22723     -273.56315     -352.19938      0              4960.2518      45.628362      20.047001      20.857         19078.144      5496.5185      3175.7361      6208.5007     -733.65799     -1585.7237      940.78765    
  27400500   264.48422     -349.42055     -271.91802     -349.41443      0              3556.0694      45.445707      20.047001      20.857         19001.773      5369.9216      3430.3795      1867.9072      890.91752      407.74283      456.56164    
  27401000   258.90296     -350.61055     -274.74351     -350.58316      0              5874.0642      45.43822       20.047001      20.857         18998.642      6524.2585      5766.1753      5331.7588      358.65471     -1069.1379     -375.55585    
  27401500   265.55868     -350.13293     -272.31554     -350.13004      0              6516.2594      45.380438      20.047001      20.857         18974.482      6068.2662      5845.7435      7634.7684      657.21271      3538.7422      184.89094    
  27402000   265.77674     -348.59709     -270.71581     -348.60839      0              6528.9582      45.430849      20.047001      20.857         18995.56       6853.0901      5513.4965      7220.288       628.71374      1150.6507      1748.854     
  27402500   268.47455     -351.45999     -272.78815     -351.45756      0              6350.3634      45.413829      20.047001      20.857         18988.444      5038.8568      8006.8201      6005.4134     -1481.7178     -438.63389      379.87688    
  27403000   273.88932     -353.68598     -273.42744     -353.65452      0              5783.0624      45.359798      20.047001      20.857         18965.852      6726.3522      3828.5709      6794.264      -703.4405      -1646.1107      2405.494     
  27403500   263.49409     -351.69294     -274.48054     -351.68422      0              4916.0291      45.366317      20.047001      20.857         18968.578      5423.5094      4842.7209      4481.8571      344.83698      59.080742     -253.72626    
  27404000   262.31746     -354.51213     -277.64453     -354.48197      0              5131.7766      45.498282      20.047001      20.857         19023.755      4332.5363      5497.0386      5565.7549     -10.139414     -1029.032      -116.43394    
  27404500   263.31909     -350.24316     -273.08205     -350.2369       0              5775.2863      45.408321      20.047001      20.857         18986.141      5007.9796      5579.0595      6738.8197     -2015.5046      2053.256       3.0925089    
  27405000   261.74489     -351.87305     -275.17323     -351.89821      0              5341.6748      45.446189      20.047001      20.857         19001.974      7275.1205      4260.1237      4489.7802      1594.5556      313.28687     -707.0716     
  27405500   269.59864     -351.92785     -272.92662     -351.95504      0              5161.9537      45.384628      20.047001      20.857         18976.234      5754.8112      2475.1265      7255.9234      142.35577      3422.2176      807.95404    
  27406000   261.40039     -351.86998     -275.27111     -351.88561      0              4654.9142      45.294969      20.047001      20.857         18938.746      6908.7587      3538.4282      3517.5555      851.42221     -1883.2301      2500.2629    
  27406500   263.07213     -352.9647      -275.87595     -352.96811      0              7269.7431      45.235435      20.047001      20.857         18913.854      6056.9151      8052.0451      7700.2692     -1813.205      -125.03714     -1601.0734    
  27407000   267.17916     -348.99143     -270.69919     -349.01682      0              3055.4         45.3312        20.047001      20.857         18953.895      5643.7172      711.0134       2811.4692     -207.90775      1938.6776      778.63863    
  27407500   258.90877     -352.21422     -276.34548     -352.21626      0              7189.0751      45.385258      20.047001      20.857         18976.498      7570.7791      8493.0025      5503.4436      1022.9844     -545.99664      1997.5916    
  27408000   262.46915     -350.07048     -273.15843     -350.05341      0              7234.1393      45.495846      20.047001      20.857         19022.737      8200.3281      5753.6368      7748.4532      354.17545      927.63027     -222.63247    
  27408500   260.48527     -349.51318     -273.18246     -349.5669       0              5172.1423      45.442254      20.047001      20.857         19000.329      4834.234       6898.3806      3783.8123      1144.3641      2334.8233      976.42527    
  27409000   265.15169     -353.80844     -276.11031     -353.80687      0              6919.8801      45.261905      20.047001      20.857         18924.921      7876.9301      3322.0114      9560.6989      1211.0869     -175.20375      1676.6997    
  27409500   261.62651     -352.02714     -275.36201     -352.05343      0              4721.3366      45.524449      20.047001      20.857         19034.696      6923.6306      4114.5369      3125.8423     -380.10879     -915.68286      1052.5325    
  27410000   264.9669      -353.97664     -276.33266     -354.00979      0              4455.9499      45.721688      20.047001      20.857         19117.166      3466.7101      4026.257       5874.8825     -588.06024     -985.36992     -1333.2375    
  27410500   258.34268     -349.17043     -273.46757     -349.16617      0              5793.2965      45.430299      20.047001      20.857         18995.33       4696.6857      5782.1886      6901.0153      258.5627      -456.62182     -1616.378     
  27411000   258.14495     -350.93607     -275.29115     -350.95475      0              5757.9889      45.352669      20.047001      20.857         18962.872      4794.3513      7422.0383      5057.577      -1634.8995      76.895935      1065.2494    
  27411500   262.45773     -351.64084     -274.73213     -351.6568       0              4535.8123      45.662182      20.047001      20.857         19092.285      4368.7725      4404.6776      4833.9866     -444.04444     -1434.2341     -19.323032    
  27412000   264.55804     -350.07901     -272.55484     -350.09683      0              5601.7484      45.334041      20.047001      20.857         18955.083      4927.2333      7883.9843      3994.0275     -1451.3088      1215.5251     -519.39165    
  27412500   267.82437     -349.335       -270.85369     -349.31835      0              5271.0644      44.947591      20.047001      20.857         18793.5        9270.4483      2773.8628      3768.8819      289.07873     -2197.4393     -503.47793    
  27413000   270.70296     -352.50997     -273.18513     -352.51891      0              4125.6107      45.566595      20.047001      20.857         19052.318      3768.8935      3678.5708      4929.3678     -312.36956      71.534244     -344.49746    
  27413500   257.10505     -351.37707     -276.03687     -351.38406      0              4808.0219      45.65224       20.047001      20.857         19088.128      6864.8079      2475.7795      5083.4782      106.2188       429.47814     -406.21288    
  27414000   268.42949     -349.76969     -271.11106     -349.79022      0              3558.9174      45.416248      20.047001      20.857         18989.455      4022.3863      4458.8338      2195.532       1339.7289     -1496.7567      232.27796    
  27414500   257.54708     -348.93957     -273.46984     -348.95135      0              4334.9632      45.65691       20.047001      20.857         19090.081      4103.7284      2774.8566      6126.3046      945.71587      222.73441     -793.6278     
  27415000   261.49146     -347.11738     -270.49182     -347.14772      0              1703.3461      45.666657      20.047001      20.857         19094.156      3278.6075      2061.1407     -229.71003     -1371.3499     -357.80411     -405.47319    
  27415500   266.76019     -349.30741     -271.13794     -349.32169      0              7305.5283      45.349496      20.047001      20.857         18961.545      7783.8994      7303.8813      6828.804       1286.5593     -1986.503       1300.345     
  27416000   261.03404     -350.58672     -274.0952      -350.59247      0              4833.1877      45.39214       20.047001      20.857         18979.375      5769.6782      3802.7102      4927.1746      165.06978     -350.08024      1077.4933    
  27416500   268.66973     -349.77588     -271.04685     -349.77225      0              5976.3841      45.609725      20.047001      20.857         19070.352      7255.6529      5934.7852      4738.7142      1233.9789     -1273.7564      575.02982    
  27417000   272.88015     -352.09977     -272.13695     -352.09899      0              2899.4489      45.669294      20.047001      20.857         19095.259      2866.5203      1158.5714      4673.255      -16.569865      49.505778     -1844.6397    
  27417500   263.37202     -350.03691     -272.86028     -350.05476      0              6335.9804      45.491899      20.047001      20.857         19021.086      9592.9817      6401.8197      3013.1398      861.92234     -273.72533     -1179.7443    
  27418000   264.97399     -349.34559     -271.69953     -349.34274      0              4899.8083      45.437981      20.047001      20.857         18998.542      8481.3585      3484.5294      2733.5369     -2456.7511      226.4289      -1542.486     
  27418500   270.5894      -350.81684     -271.52528     -350.82825      0              3838.1139      45.532989      20.047001      20.857         19038.267      3911.576       3947.7963      3654.9695     -761.13137     -1239.9545      125.54708    
  27419000   269.22713     -350.71235     -271.81998     -350.74087      0              6896.605       45.577202      20.047001      20.857         19056.754      6438.1366      8286.1557      5965.5228     -1600.3302      387.71025      207.73255    
  27419500   265.79654     -349.22488     -271.33779     -349.25901      0              8304.0852      45.314786      20.047001      20.857         18947.032      10455.68       6765.1526      7691.423       814.59592      1126.9702     -1652.2053    
  27420000   263.52783     -347.90373     -270.68145     -347.90467      0              6015.2314      45.169638      20.047001      20.857         18886.343      4949.902       4832.5577      8263.2346     -1402.078      -652.8832      -4.1884617    
  27420500   264.32231     -349.47728     -272.02218     -349.47262      0              5442.0056      45.278401      20.047001      20.857         18931.819      6119.3591      4811.6046      5395.0533     -800.31244     -984.83638      504.21115    
  27421000   264.36804     -350.216       -272.7475      -350.2385       0              7136.2815      45.600938      20.047001      20.857         19066.678      6647.8678      5678.0095      9082.9674     -343.34149     -520.67212     -827.01662    
  27421500   263.50796     -350.41072     -273.19426     -350.42138      0              5614.9843      45.614895      20.047001      20.857         19072.514      7485.2089      5549.0188      3810.7251      784.932       -801.41765      2202.0846    
  27422000   261.55901     -349.71827     -273.07292     -349.72409      0              4862.6217      45.232461      20.047001      20.857         18912.61       4804.4565      4227.8973      5555.5114      810.61065      494.99754     -19.424509    
  27422500   264.39691     -350.62237     -273.14541     -350.64843      0              9133.0645      45.032413      20.047001      20.857         18828.966      10185.186      7670.9241      9543.084       1026.2938     -1016.5203      331.41002    
  27423000   263.08356     -348.91215     -271.82005     -348.92987      0              5216.9919      45.519939      20.047001      20.857         19032.81       5097.9129      4985.7163      5567.3465     -1233.8143      44.192548      677.6817     
  27423500   269.84018     -349.80759     -270.73558     -349.82668      0              4859.4319      45.797255      20.047001      20.857         19148.762      5277.6398      5340.3695      3960.2864      65.817932     -1480.698       146.80981    
  27424000   264.47747     -351.5551      -274.05454     -351.52832      0              4925.8976      45.450738      20.047001      20.857         19003.876      4458.1682      4229.0227      6090.5019     -24.062399      1765.2067      20.506962    
  27424500   257.50914     -349.70564     -274.24703     -349.71337      0              6511.9154      45.249992      20.047001      20.857         18919.94       5930.5182      7009.2678      6595.9603      24.395543     -806.43107      1620.0521    
  27425000   267.51426     -349.06391     -270.67347     -349.068        0              3375.7871      45.362952      20.047001      20.857         18967.171      4083.5364      3840.5293      2203.2957      601.9048       2362.6924      1758.5279    
  27425500   274.39643     -350.43382     -270.02668     -350.41647      0              6857.7204      45.410475      20.047001      20.857         18987.041      7975.6438      6441.0145      6156.5028     -31.903357     -961.58267     -428.76237    
  27426000   265.23904     -347.19947     -269.47575     -347.21199      0              6132.865       45.511996      20.047001      20.857         19029.489      7219.9713      5816.1907      5362.4328      943.63129      567.75565     -570.16854    
  27426500   263.01348     -350.69861     -273.62704     -350.68881      0              4505.4819      45.570692      20.047001      20.857         19054.032      5173.3283      4444.9769      3898.1404     -2760.6555      590.24254      589.7848     
  27427000   267.21036     -348.92398     -270.6226      -348.91639      0              6313.1465      45.538513      20.047001      20.857         19040.577      6182.8789      5917.282       6839.2787      1465.3635     -671.31441     -602.12431    
  27427500   270.5535      -349.41191     -270.13087     -349.44611      0              6509.8454      45.629166      20.047001      20.857         19078.48       5763.4552      7283.0257      6483.0552      1238.7726     -884.74615      3074.0367    
  27428000   266.06868     -347.62662     -269.65978     -347.65959      0              3759.4752      45.740049      20.047001      20.857         19124.843      2682.1019      4253.4145      4342.9091      1335.088      -178.93739     -459.52974    
  27428500   271.41832     -348.55241     -269.01796     -348.56324      0              6443.8758      45.416472      20.047001      20.857         18989.549      8163.6807      5498.6136      5669.3329      2056.3547      1289.3663     -88.255756    
  27429000   274.79292     -348.53783     -268.0145      -348.54882      0              5155.5513      45.636122      20.047001      20.857         19081.389      5103.6542      5688.3416      4674.658      -253.54987     -2503.2777      437.53126    
  27429500   265.53685     -349.3465      -271.53551     -349.37008      0              4309.9417      45.699357      20.047001      20.857         19107.829      4815.7451      1878.265       6235.8149      132.68191     -364.77709     -1422.9468    
  27430000   267.73716     -349.45078     -270.99502     -349.46377      0              6875.5105      45.508865      20.047001      20.857         19028.18       9551.6695      4774.3115      6300.5504     -688.96695      691.13802      698.59991    
  27430500   260.72075     -349.92222     -273.5225      -349.94         0              4685.1462      45.612395      20.047001      20.857         19071.468      6843.9966      3754.4177      3457.0242     -733.18105     -990.5346      -1022.3436    
  27431000   261.96435     -352.38443     -275.62029     -352.41446      0              5723.6165      45.837472      20.047001      20.857         19165.578      3893.6703      6227.6884      7049.4909     -1058.8115      298.09925     -981.3126     
  27431500   260.10756     -349.78926     -273.56923     -349.78523      0              5717.258       45.622012      20.047001      20.857         19075.489      6735.6775      5257.4514      5158.645      -589.56356     -211.14561      631.40264    
  27432000   259.90519     -348.50996     -272.34923     -348.50101      0              4805.1487      45.553102      20.047001      20.857         19046.677      7913.3498      3658.1675      2843.9289      94.688305      157.0087      -1521.2362    
  27432500   260.97708     -352.24003     -275.7652      -352.25706      0              3180.4826      45.778406      20.047001      20.857         19140.881      4815.3788      649.70466      4076.3643     -1081.4852     -228.99413      2179.6982    
  27433000   259.10686     -352.0208      -276.094       -352.01699      0              4409.394       45.713761      20.047001      20.857         19113.852      5714.4005      2780.6268      4733.1546      107.18591     -956.73774      1641.0673    
  27433500   270.68981     -351.16271     -271.84173     -351.1475       0              6323.9584      45.519917      20.047001      20.857         19032.801      7482.1672      5411.3886      6078.3194     -260.86938     -1929.6132     -1868.9314    
  27434000   258.72654     -349.37496     -273.55961     -349.38468      0              4137.3798      45.661856      20.047001      20.857         19092.149      5059.6699      5012.0517      2340.4178     -176.80052     -419.16424      221.4083     
  27434500   260.15742     -350.22828     -273.99364     -350.20305      0              6003.4854      45.832904      20.047001      20.857         19163.667      7082.7619      4929.7126      5997.9817     -365.35574     -1407.4907      1764.6999    
  27435000   259.5856      -354.18807     -278.12099     -354.14492      0              4678.8071      45.733164      20.047001      20.857         19121.964      6062.4526      2642.215       5331.7537      14.761293     -385.90579      378.68471    
  27435500   266.41586     -349.59329     -271.52472     -349.59537      0              6646.2378      45.326057      20.047001      20.857         18951.745      6603.9878      6356.2961      6978.4295     -736.02201     -1277.3918      852.6849     
  27436000   264.73408     -350.67423     -273.09848     -350.68846      0              5276.3499      45.505582      20.047001      20.857         19026.808      5984.0849      5008.3735      4836.5914     -527.41195      328.17819      801.46197    
  27436500   266.47295     -353.3389      -275.25359     -353.34335      0              5660.2621      46.178193      20.047001      20.857         19308.04       6747.6383      3975.2205      6257.9277     -958.19453     -2367.1341      152.77056    
  27437000   257.1321      -351.49145     -276.14333     -351.46011      0              3697.8561      45.872754      20.047001      20.857         19180.33       2515.6041      5170.9179      3407.0464     -132.89871      1326.8778     -779.4182     
ERROR on proc 0: Cannot open restart file restart.lmp.0: Permission denied (../write_restart.cpp:233)
Last command: run             40000000 upto
