LAMMPS (23 Jun 2022)
echo both

include		in.partitions
variable        pid world 0
include		in.temp
variable	temperature equal 265.0
variable        tempDamp equal 0.100 # this is 0.1 ps
include		in.pressure
variable        pressure equal 6079.5
variable        pressureDamp equal 1.0 #this is 1ps
include		in.seed
variable        seed world 745823

units           metal
atom_style	full
read_restart	restart.lmp.${pid}
read_restart	restart.lmp.0
Reading restart file ...
  restart file = 23 Jun 2022, LAMMPS = 23 Jun 2022
  restoring atom style full from restart
  orthogonal box = (0.77389426 0 0) to (46.676805 20.047001 20.857)
  4 by 1 by 1 MPI processor grid
Summary of lammps deepmd module ...
  >>> Info of deepmd-kit:
  installed to:       /u/sigbjobo/software/DEEPMD_FROM_SOURCE/deepmd-kit/install
  source:             v2.1.3
  source branch:       master
  source commit:      5a32c49
  source commit at:   2022-07-01 09:52:58 +0800
  surpport model ver.:1.1 
  build float prec:   double
  build with tf inc:  /u/sigbjobo/software/DEEPMD_FROM_SOURCE/tensorflow/install/include;/u/sigbjobo/software/DEEPMD_FROM_SOURCE/tensorflow/install/include
  build with tf lib:  /u/sigbjobo/software/DEEPMD_FROM_SOURCE/tensorflow/install/lib/libtensorflow_cc.so;/u/sigbjobo/software/DEEPMD_FROM_SOURCE/tensorflow/install/lib/libtensorflow_framework.so
  set tf intra_op_parallelism_threads: 0
  set tf inter_op_parallelism_threads: 0
  >>> Info of lammps module:
  use deepmd-kit at:  /u/sigbjobo/software/DEEPMD_FROM_SOURCE/deepmd-kit/install
  source:             v2.1.3
  source branch:      master
  source commit:      5a32c49
  source commit at:   2022-07-01 09:52:58 +0800
  build float prec:   double
  build with tf inc:  /u/sigbjobo/software/DEEPMD_FROM_SOURCE/tensorflow/install/include;/u/sigbjobo/software/DEEPMD_FROM_SOURCE/tensorflow/install/include
  build with tf lib:  /u/sigbjobo/software/DEEPMD_FROM_SOURCE/tensorflow/install/lib/libtensorflow_cc.so;/u/sigbjobo/software/DEEPMD_FROM_SOURCE/tensorflow/install/lib/libtensorflow_framework.so
  restoring pair style deepmd from restart
  2268 atoms
Finding 1-2 1-3 1-4 neighbors ...
  special bond factors lj:    0        0        0       
  special bond factors coul:  0        0        0       
     0 = max # of 1-2 neighbors
     0 = max # of 1-3 neighbors
     0 = max # of 1-4 neighbors
     1 = max # of special neighbors
  special bonds CPU = 0.001 seconds
  read_restart CPU = 0.011 seconds
include 	in.setup
variable	out_freq equal 500
variable	out_freq2 equal 1000
variable	out_freq3 equal 5000

timestep        0.0005

neigh_modify    delay 7 every 1

include         in.deepmd
# This is deepMD model

# create groups ###
#group ox type 2
#group hy type 1

mass 2 15.999
mass 1 1.008

pair_style      deepmd ../graph.pb
pair_coeff      * *

bond_style      none
angle_style     none
dihedral_style  none
improper_style  none
neigh_modify exclude none


neighbor        2.0 bin
neigh_modify    every 10 delay 0 check no

thermo          ${out_freq}
thermo          500
thermo_style 	custom step temp pe etotal epair emol press lx ly lz vol pxx pyy pzz pxy pxz pyz
#thermo_modify	flush yes
restart 	${out_freq} restart.lmp.${pid} restart2.lmp.${pid}
restart 	500 restart.lmp.${pid} restart2.lmp.${pid}
restart 	500 restart.lmp.0 restart2.lmp.${pid}
restart 	500 restart.lmp.0 restart2.lmp.0

include		in.dump
dump            myDump all atom ${out_freq3} dump.water.${pid}
dump            myDump all atom 5000 dump.water.${pid}
dump            myDump all atom 5000 dump.water.0
dump            myDump2 all dcd ${out_freq2} dump.dcd.${pid}
dump            myDump2 all dcd 1000 dump.dcd.${pid}
dump            myDump2 all dcd 1000 dump.dcd.0
dump_modify     myDump append yes
dump_modify     myDump2 append yes


timer           timeout 23:50:00 every 1000
New timer settings: style=normal  mode=nosync  timeout=23:50:00

fix             1 all plumed plumedfile plumed.dat outfile plumed.out
fix             3 all nph x ${pressure} ${pressure} ${pressureDamp}
fix             3 all nph x 6079.5 ${pressure} ${pressureDamp}
fix             3 all nph x 6079.5 6079.5 ${pressureDamp}
fix             3 all nph x 6079.5 6079.5 1
Resetting global fix info from restart file:
  fix style: nph, fix ID: 3
fix             4 all temp/csvr ${temperature} ${temperature} ${tempDamp} ${seed}
fix             4 all temp/csvr 265 ${temperature} ${tempDamp} ${seed}
fix             4 all temp/csvr 265 265 ${tempDamp} ${seed}
fix             4 all temp/csvr 265 265 0.1 ${seed}
fix             4 all temp/csvr 265 265 0.1 745823
Resetting global fix info from restart file:
  fix style: temp/csvr, fix ID: 4

run             40000000 upto

CITE-CITE-CITE-CITE-CITE-CITE-CITE-CITE-CITE-CITE-CITE-CITE-CITE

Your simulation uses code contributions which should be cited:

- USER-DEEPMD package:

@article{Wang_ComputPhysCommun_2018_v228_p178,
  author = {Wang, Han and Zhang, Linfeng and Han, Jiequn and E, Weinan},
  doi = {10.1016/j.cpc.2018.03.016},
  url = {https://doi.org/10.1016/j.cpc.2018.03.016},
  year = 2018,
  month = {jul},
  publisher = {Elsevier {BV}},
  volume = 228,
  journal = {Comput. Phys. Commun.},
  title = {{DeePMD-kit: A deep learning package for many-body potential energy representation and molecular dynamics}},
  pages = {178--184}
}

CITE-CITE-CITE-CITE-CITE-CITE-CITE-CITE-CITE-CITE-CITE-CITE-CITE

Generated 0 of 1 mixed pair_coeff terms from geometric mixing rule
All restart file global fix info was re-assigned
Neighbor list info ...
  update every 10 steps, delay 0 steps, check no
  max neighbors/atom: 2000, page size: 100000
  master list distance cutoff = 8
  ghost atom cutoff = 8
  binsize = 4, bins = 12 6 6
  1 neighbor lists, perpetual/occasional/extra = 1 0 0
  (1) pair deepmd, perpetual
      attributes: full, newton on
      pair build: full/bin
      stencil: full/bin/3d
      bin: standard
Per MPI rank memory allocation (min/avg/max) = 6.147 | 6.15 | 6.154 Mbytes
   Step          Temp          PotEng         TotEng         E_pair         E_mol          Press            Lx             Ly             Lz           Volume          Pxx            Pyy            Pzz            Pxy            Pxz            Pyz      
  26646500   275.42376     -347.95704     -267.24886     -347.95704      0              4689.9198      45.90291       20.047001      20.857         19192.939      2074.646       6789.5113      5205.6021      1386.7138      256.45647      1561.4047    
  26647000   269.69835     -349.99346     -270.96301     -350.02581      0              4687.9825      45.964306      20.047001      20.857         19218.609      4786.6187      4932.0021      4345.3269     -569.4443      -526.33954     -928.44201    
  26647500   258.90869     -344.43959     -268.57086     -344.45084      0              5133.8856      45.670338      20.047001      20.857         19095.696      5192.3624      6490.7237      3718.5707      331.2363      -310.61477      178.49737    
  26648000   263.96122     -346.02478     -268.6755      -346.01284      0              4123.9176      45.443508      20.047001      20.857         19000.853      4054.8827      5411.4129      2905.4571     -1160.8578      765.25158      13.866679    
  26648500   259.73716     -348.09008     -271.97859     -348.08113      0              5862.6247      45.633955      20.047001      20.857         19080.483      6301.4701      4995.42        6290.9841      860.86497      1982.6607      343.65871    
  26649000   263.20781     -348.08055     -270.95204     -348.08229      0              5306.7442      45.930882      20.047001      20.857         19204.634      4730.6828      5530.515       5659.0349     -646.40976     -225.50559     -1590.4412    
  26649500   267.16649     -350.3352      -272.04667     -350.33419      0              3394.6785      46.088598      20.047001      20.857         19270.578      6643.702      -630.55292      4170.8865     -452.76089     -348.89551     -2019.2206    
  26650000   266.02103     -348.38324     -270.43037     -348.37637      0              5696.708       45.583161      20.047001      20.857         19059.245      7347.002       4613.493       5129.6289     -182.59129     -2243.742      -634.80285    
  26650500   263.28918     -347.08588     -269.93352     -347.07792      0              7044.9869      45.572259      20.047001      20.857         19054.687      6870.9539      8764.7493      5499.2576      287.99519     -406.63205     -754.40022    
  26651000   264.1874      -352.34731     -274.93175     -352.32629      0              3170.9943      45.946239      20.047001      20.857         19211.055      4129.9925      2863.0127      2519.9776      1510.124      -496.10224      371.08768    
  26651500   261.44462     -352.02657     -275.41474     -352.02621      0              4710.6392      46.024266      20.047001      20.857         19243.68       6437.333       1724.6916      5969.8929     -721.00989     -1665.2753      14.034978    
  26652000   256.66953     -350.26223     -275.04965     -350.24532      0              4586.5518      45.841049      20.047001      20.857         19167.073      4447.3414      2743.9074      6568.4066      1616.6401     -250.12181     -365.90945    
  26652500   260.10138     -350.52182     -274.3036      -350.5013       0              3764.0842      45.678748      20.047001      20.857         19099.212      6555.3553      2502.9723      2233.9251     -368.15481     -1551.32       -1539.443     
  26653000   274.48108     -349.89111     -269.45917     -349.87478      0              6291.6985      45.855729      20.047001      20.857         19173.211      8454.3761      3443.8109      6976.9085      1042.0237     -271.61243     -132.65935    
  26653500   263.23178     -349.02498     -271.88945     -349.01705      0              5333.6978      46.008128      20.047001      20.857         19236.932      3652.8616      7196.9141      5151.3177      1722.6048     -1749.3425      539.49565    
  26654000   270.73497     -349.37012     -270.03591     -349.37311      0              5215.1551      45.890366      20.047001      20.857         19187.694      5888.9204      3644.8703      6111.6747      445.66082     -1384.5724     -225.14527    
  26654500   263.40095     -348.53547     -271.35036     -348.54834      0              5585.9295      45.98879       20.047001      20.857         19228.847      4441.6759      6221.201       6094.9115      557.16309     -1166.7474     -1838.5478    
  26655000   271.41225     -348.39796     -268.86528     -348.39505      0              4366.9731      46.110327      20.047001      20.857         19279.664      5257.3452      2488.6946      5354.8795      63.967366     -918.40131      1215.2214    
  26655500   268.5454      -349.92091     -271.22831     -349.92479      0              6591.2891      46.085302      20.047001      20.857         19269.2        9146.3894      6591.4452      4036.0327      265.04891      325.90133     -32.25757     
  26656000   265.51443     -347.61814     -269.81371     -347.62713      0              4811.8783      45.708712      20.047001      20.857         19111.74       4574.6161      5696.5349      4164.484      -105.64485      1484.1538     -30.391517    
  26656500   265.75299     -348.61039     -270.73606     -348.60469      0              8200.623       45.466555      20.047001      20.857         19010.489      9134.5514      6472.9844      8994.333       565.48007     -253.82448      2423.2254    
  26657000   273.16765     -348.08648     -268.03941     -348.09875      0              3999.6691      45.717239      20.047001      20.857         19115.306      4323.8876      4383.9808      3291.1389      383.72064     -1842.3424     -905.70251    
  26657500   256.52088     -347.24902     -272.08        -347.28993      0              2971.1492      45.881565      20.047001      20.857         19184.014      2975.1601      4028.9298      1909.3578      838.64194     -1479.163       1891.3812    
  26658000   268.39957     -349.68094     -271.03108     -349.69484      0              8301.3138      45.710804      20.047001      20.857         19112.615      8760.0487      8011.2689      8132.6237      46.759029     -1323.2512     -693.10623    
  26658500   269.6506      -348.33167     -269.31521     -348.3101       0              4641.6093      45.735204      20.047001      20.857         19122.817      5258.4384      5633.3257      3033.0638     -746.16883      73.541248     -333.55603    
  26659000   263.64085     -346.89928     -269.64388     -346.8749       0              4755.8893      45.883553      20.047001      20.857         19184.845      5985.2117      2128.224       6154.2322      1099.9912     -1143.6562      1219.1841    
  26659500   263.04511     -348.79592     -271.71509     -348.77652      0              4594.37        45.98137       20.047001      20.857         19225.744      4796.7224      4452.6826      4533.7049      1015.8157     -106.12906      109.43201    
  26660000   259.85822     -349.85139     -273.70442     -349.88374      0              4991.5431      45.645411      20.047001      20.857         19085.273      4298.0132      5407.8239      5268.7921      175.31151     -186.08412     -1087.4964    
  26660500   268.74368     -350.84934     -272.09864     -350.85166      0              4905.3841      45.571117      20.047001      20.857         19054.209      4644.367       5693.5506      4378.2348      729.47198     -2174.8243     -499.67303    
  26661000   265.59956     -349.56038     -271.73101     -349.57687      0              5548.2349      46.016759      20.047001      20.857         19240.541      7224.7186      4669.4908      4750.4952     -361.74453     -104.80239      1054.2392    
  26661500   259.041       -349.14925     -273.24175     -349.17336      0              3031.8245      46.100594      20.047001      20.857         19275.594      3608.964       4441.4242      1045.0854     -329.76511      454.89711     -116.04831    
  26662000   252.81349     -348.55217     -274.46953     -348.5445       0              6329.8249      45.531298      20.047001      20.857         19037.56       6382.6583      5644.0681      6962.7483     -288.69181      63.02404      -1309.6392    
  26662500   263.2         -349.62454     -272.49832     -349.58642      0              5847.5785      45.336234      20.047001      20.857         18956          5260.6881      7183.2337      5098.8136      1208.2682      1376.3526      148.01438    
  26663000   266.5863      -352.35061     -274.2321      -352.31973      0              2825.8329      45.659404      20.047001      20.857         19091.124      5514.21        1485.4745      1477.8142     -29.584362     -93.793034     -149.32441    
  26663500   263.0282      -349.89771     -272.82183     -349.89416      0              6216.706       45.912257      20.047001      20.857         19196.847      8944.0743      4946.9179      4759.1258     -982.73785      51.90279      -2086.3391    
  26664000   274.86762     -351.80768     -271.26247     -351.80826      0              5663.5109      45.849068      20.047001      20.857         19170.426      8108.4362      4107.5561      4774.5403     -54.04542       1564.5228      28.107693    
  26664500   269.80784     -349.98714     -270.92461     -350.00252      0              4987.3877      45.818389      20.047001      20.857         19157.599      5910.1361      4642.1882      4409.8389     -149.96162     -1588.724      -894.63859    
  26665000   263.73686     -352.01339     -274.72985     -351.99637      0              5021.6691      45.786284      20.047001      20.857         19144.175      5214.8348      5258.9039      4591.2686     -371.15948     -849.82729     -1362.818     
  26665500   268.35477     -350.98646     -272.34972     -350.96591      0              4748.6049      45.534107      20.047001      20.857         19038.734      6978.3503      3693.28        3574.1844     -440.32984      409.442        926.35957    
  26666000   257.31671     -347.84265     -272.44043     -347.86162      0              3525.5195      45.771297      20.047001      20.857         19137.908      3117.1132      4927.2911      2532.1543     -684.93607      1222.6999     -1144.7082    
  26666500   259.32734     -350.16085     -274.16945     -350.17206      0              5876.6258      45.884651      20.047001      20.857         19185.304      7823.5501      5209.8872      4596.4401      1124.9441     -1188.0008      643.11086    
  26667000   257.62729     -347.96701     -272.47378     -347.95754      0              5549.6135      45.753998      20.047001      20.857         19130.675      5081.7147      6332.2174      5234.9083      1826.7431      530.70263     -267.50174    
  26667500   265.77307     -350.62786     -272.74765     -350.61078      0              5355.4261      45.797408      20.047001      20.857         19148.826      4470.3104      6915.1258      4680.8423      321.68977     -478.18601      460.35326    
  26668000   269.17389     -351.51511     -272.63834     -351.51031      0              7276.7952      46.085993      20.047001      20.857         19269.489      8814.7829      5456.7824      7558.8203     -550.50645     -223.20375      1578.329     
  26668500   265.73445     -349.77238     -271.90348     -349.75677      0              4525.797       45.993832      20.047001      20.857         19230.955      5521.1049      4503.7369      3552.5492     -322.19057     -269.38495      493.89465    
  26669000   260.60883     -350.63828     -274.27136     -350.59758      0              5593.1436      45.739785      20.047001      20.857         19124.733      6927.2142      5177.6484      4674.5681      1047.4998      402.50908      21.927583    
  26669500   266.87248     -350.81022     -272.60784     -350.77464      0              6506.3628      45.822915      20.047001      20.857         19159.491      5120.8857      6819.9359      7578.2669     -324.45718     -616.77723     -219.67399    
  26670000   261.74997     -349.08312     -272.38181     -349.06973      0              4629.055       46.007698      20.047001      20.857         19236.753      4267.0954      3376.9281      6243.1414      723.58964     -1445.5687      1925.1199    
  26670500   264.31239     -351.18835     -273.73616     -351.15337      0              4735.5673      46.031615      20.047001      20.857         19246.753      4115.02        3228.9463      6862.7356     -509.93564     -380.6572       2168.7218    
  26671000   261.00474     -349.80153     -273.31859     -349.7681       0              5487.5578      45.922637      20.047001      20.857         19201.187      6305.979       4484.0333      5672.661       770.89274     -1333.6177     -5.1270949    
  26671500   263.1953      -346.20935     -269.08451     -346.19617      0              6748.5959      45.918871      20.047001      20.857         19199.612      9321.9543      4314.8955      6608.9378      934.75833     -1475.7096      770.67169    
  26672000   272.45802     -349.8999      -270.06078     -349.91266      0              3831.202       46.013455      20.047001      20.857         19239.159      1966.9802      3189.2457      6337.38        486.00882     -490.78213      604.32713    
  26672500   266.00775     -348.83976     -270.89077     -348.84649      0              6637.7483      45.975611      20.047001      20.857         19223.336      6812.9027      5647.795       7452.5471      744.49596      76.939584     -649.36469    
  26673000   258.5535      -346.91046     -271.14582     -346.93094      0              5685.4335      45.81484       20.047001      20.857         19156.115      3830.5971      7184.7803      6040.9232     -376.22581     -695.8737      -1564.1257    
  26673500   258.50889     -348.26715     -272.51558     -348.28072      0              5579.9363      45.574794      20.047001      20.857         19055.747      7073.1238      5124.4017      4542.2833      1470.6164      454.69432     -699.50693    
  26674000   263.58479     -349.5029      -272.26392     -349.47123      0              6005.0439      45.781078      20.047001      20.857         19141.998      8187.2181      4881.6149      4946.2988     -91.276897     -204.59059      160.06491    
  26674500   270.31174     -349.72905     -270.51886     -349.73459      0              4851.4651      46.147609      20.047001      20.857         19295.252      6059.2896      2765.1941      5729.9116      919.96858      453.3816      -765.15152    
  26675000   265.54987     -347.90113     -270.08633     -347.91603      0              4668.8869      45.964409      20.047001      20.857         19218.652      4360.8117      5105.4435      4540.4055     -1503.5315      2143.3186      725.4194     
  26675500   269.46584     -349.85504     -270.89273     -349.87459      0              7105.1454      45.694903      20.047001      20.857         19105.966      5012.9248      10208.478      6094.0336      1302.6232     -1636.5595      1299.2081    
  26676000   263.53108     -349.12625     -271.90301     -349.13837      0              6156.0045      45.721504      20.047001      20.857         19117.089      5643.6745      6309.5011      6514.838      -1434.1837      754.65624      2038.6925    
  26676500   265.308       -351.96539     -274.22146     -352.01314      0              4922.2346      45.726412      20.047001      20.857         19119.141      4668.3647      4496.8009      5601.5381      2091.1914      1342.5008      220.6484     
  26677000   266.69452     -350.8494      -272.69917     -350.85186      0              5390.0976      45.813839      20.047001      20.857         19155.696      7863.6869      5264.4538      3042.1521     -106.29423     -194.88548     -505.98193    
  26677500   263.53262     -348.71539     -271.49171     -348.73047      0              3674.232       46.003142      20.047001      20.857         19234.847      3334.0439      4591.6407      3097.0115      156.2022       738.42942      1233.751     
  26678000   264.11702     -350.54507     -273.15014     -350.54133      0              6184.6414      45.840443      20.047001      20.857         19166.82       7461.0722      6134.4537      4958.3982     -57.650782      1744.8557     -409.86382    
  26678500   263.31919     -349.93906     -272.77791     -349.92726      0              7346.5946      45.479677      20.047001      20.857         19015.976      8000.6276      7519.0038      6520.1523      396.44062     -341.9338       977.64148    
  26679000   260.15379     -347.9157      -271.68212     -347.88733      0              7683.5761      45.844621      20.047001      20.857         19168.567      10278.333      5265.6337      7506.7617      336.82587     -1380.25       -706.1262     
  26679500   258.17588     -349.49984     -273.84585     -349.49697      0              4132.7947      46.171837      20.047001      20.857         19305.382      3563.1934      3920.1389      4915.0517      2576.1964     -830.90947      966.10987    
  26680000   265.62342     -350.07871     -272.24235     -350.06285      0              4350.153       45.572618      20.047001      20.857         19054.837      5207.3342      3209.1777      4633.9471     -125.50489     -300.00425      482.04297    
  26680500   264.08574     -349.89777     -272.51199     -349.8843       0              4925.8789      45.293446      20.047001      20.857         18938.109      5042.1965      3623.0772      6112.363      -789.84628      1512.1591      1422.3612    
  26681000   270.91666     -352.14857     -272.76111     -352.14687      0              7202.6525      45.669505      20.047001      20.857         19095.347      8983.1197      6542.8232      6082.0147      476.60504     -2131.9124      795.54577    
  26681500   262.87347     -348.12661     -271.09608     -348.13226      0              3439.9875      45.869735      20.047001      20.857         19179.067      3703.9874      3382.8237      3233.1515     -679.77189     -557.5662      -68.916669    
  26682000   260.86285     -348.00601     -271.56465     -347.95671      0              5029.5114      45.608945      20.047001      20.857         19070.026      6745.9585      1503.6324      6838.9434     -253.28238     -104.39148      1156.4428    
  26682500   264.40607     -350.65941     -273.17977     -350.62094      0              4910.6645      45.405995      20.047001      20.857         18985.168      6927.6897      2822.262       4982.0418     -1049.599      -2427.6899      868.40068    
  26683000   259.89156     -346.88487     -270.72813     -346.899        0              5362.1057      45.583502      20.047001      20.857         19059.387      3492.0224      6142.7552      6451.5395     -1457.2753     -562.31468     -982.37304    
  26683500   268.51561     -347.20758     -268.52372     -347.19085      0              5874.1756      45.7601        20.047001      20.857         19133.227      5934.4913      5792.6834      5895.3521      820.93493     -310.53979      121.64518    
  26684000   269.42304     -349.90267     -270.95289     -349.87389      0              5587.909       45.36144       20.047001      20.857         18966.539      6738.8953      4143.5212      5881.3104     -1404.0555     -516.86898      664.01749    
  26684500   269.89068     -350.73857     -271.65176     -350.73169      0              7596.3191      45.463128      20.047001      20.857         19009.057      8988.4716      7012.9228      6787.5629      874.26426     -1100.3913     -208.0994     
  26685000   256.76314     -347.78167     -272.54166     -347.7293       0              4974.2903      45.897214      20.047001      20.857         19190.557      6232.5463      2984.4533      5705.8713     -300.41478     -385.77235     -133.16724    
  26685500   261.74574     -349.94382     -273.24375     -349.92664      0              5588.085       45.967031      20.047001      20.857         19219.749      4747.9912      5899.0022      6117.2616     -398.54845     -324.94468      1235.0711    
  26686000   257.60076     -349.59026     -274.1048      -349.54703      0              4722.0244      45.832364      20.047001      20.857         19163.442      6373.1623      5284.0473      2508.8636      1339.7207     -366.0653       226.99561    
  26686500   261.62605     -350.40503     -273.74003     -350.3803       0              9261.8695      45.611624      20.047001      20.857         19071.146      10630.728      9271.373       7883.5077     -1338.0157      30.810117      921.68691    
  26687000   264.85911     -348.90632     -271.29393     -348.88546      0              3916.285       45.671066      20.047001      20.857         19096          4952.0455      4023.3573      2773.4521     -387.90951     -179.00708      1691.9762    
  26687500   262.35651     -353.63954     -276.7605      -353.6262       0              6950.9419      45.801253      20.047001      20.857         19150.434      9004.7305      4771.5887      7076.5064      421.1466       360.7306       1092.2259    
  26688000   264.10904     -350.89375     -273.50115     -350.88031      0              5307.7008      45.760725      20.047001      20.857         19133.488      5836.8772      4173.7734      5912.4517     -1074.489       502.65254      1348.3564    
  26688500   267.05231     -351.96177     -273.70669     -351.94156      0              4627.7116      45.753396      20.047001      20.857         19130.424      4771.5245      3484.304       5627.3064      312.87749      255.24481      721.81518    
  26689000   266.28629     -352.53        -274.4994      -352.49295      0              5491.5079      45.639513      20.047001      20.857         19082.807      6217.1899      4567.2847      5690.0491      28.782335     -735.46758     -737.60589    
  26689500   261.40563     -350.32187     -273.72146     -350.3077       0              5881.7052      45.668815      20.047001      20.857         19095.059      7947.7164      4998.8795      4698.5198     -1136.1611      1684.5359      1860.263     
  26690000   252.69717     -349.9841      -275.93555     -350.00509      0              2955.9548      45.888314      20.047001      20.857         19186.836      5218.7466      1931.4775      1717.6402     -879.215       -1038.3434     -1745.0945    
  26690500   251.30951     -350.80616     -277.16424     -350.80587      0              6453.9352      45.647297      20.047001      20.857         19086.062      6762.7466      6250.0399      6349.0192      287.18158      1144.9783      2162.2977    
  26691000   260.83669     -347.73646     -271.30277     -347.73174      0              4385.8485      45.519312      20.047001      20.857         19032.548      4712.2486      4461.7296      3983.5674     -629.12567     -93.443701     -646.02924    
  26691500   265.22248     -352.2578      -274.53893     -352.22582      0              7465.903       45.590325      20.047001      20.857         19062.24       6642.9004      6010.8545      9743.9541     -513.68035      531.83486     -914.97854    
  26692000   262.22458     -350.05799     -273.2176      -350.01288      0              5214.7857      45.721439      20.047001      20.857         19117.062      7441.4074      4706.3917      3496.558      -55.767821      28.763028      717.33495    
  26692500   259.4383      -350.65204     -274.62812     -350.59287      0              4379.4083      45.721488      20.047001      20.857         19117.082      5207.0982      3892.5696      4038.5571      415.70741      1020.1281     -1342.1726    
  26693000   267.47114     -350.16223     -271.78442     -350.15143      0              5007.7102      45.652797      20.047001      20.857         19088.361      6042.0061      4995.637       3985.4875     -91.925631      622.86976      352.82801    
  26693500   269.69899     -351.57614     -272.5455      -351.55613      0              3999.4959      45.651773      20.047001      20.857         19087.933      4164.3789      4009.9282      3824.1808      181.28651      2202.9509      1003.295     
  26694000   263.54707     -351.00506     -273.77713     -350.99509      0              4342.2672      45.785631      20.047001      20.857         19143.902      4024.2826      5085.1978      3917.3213     -124.54302      643.36813     -1158.4586    
  26694500   269.24985     -352.76613     -273.86711     -352.71585      0              5518.1558      45.439499      20.047001      20.857         18999.177      6305.7183      4418.5885      5830.1606     -2374.0075     -910.74363     -1078.0886    
  26695000   265.21294     -347.4519      -269.73582     -347.42127      0              6753.3883      45.174861      20.047001      20.857         18888.527      7245.7736      7090.0501      5924.3412     -716.48737      1193.9538     -777.34765    
  26695500   274.62194     -347.20619     -266.73297     -347.19313      0              8478.2957      45.614803      20.047001      20.857         19072.475      9144.9599      5463.2826      10826.644     -759.54471     -51.8249       -762.61531    
  26696000   268.81314     -347.46224     -268.69119     -347.45157      0              5083.277       45.984197      20.047001      20.857         19226.926      4099.0249      5871.0155      5279.7905      885.44507     -597.49454     -694.35168    
ERROR on proc 0: Cannot open restart file restart2.lmp.0: Permission denied (../write_restart.cpp:233)
Last command: run             40000000 upto
