LAMMPS (23 Jun 2022)
echo both

include		in.partitions
variable        pid world 0
include		in.temp
variable	temperature equal 265.0
variable        tempDamp equal 0.100 # this is 0.1 ps
include		in.pressure
variable        pressure equal 6079.5
variable        pressureDamp equal 1.0 #this is 1ps
include		in.seed
variable        seed world 745823

units           metal
atom_style	full
read_restart	restart.lmp.${pid}
read_restart	restart.lmp.0
Reading restart file ...
  restart file = 23 Jun 2022, LAMMPS = 23 Jun 2022
  restoring atom style full from restart
  orthogonal box = (0.74565125 0 0) to (46.705048 20.047001 20.857)
  4 by 1 by 1 MPI processor grid
Summary of lammps deepmd module ...
  >>> Info of deepmd-kit:
  installed to:       /u/sigbjobo/software/DEEPMD_FROM_SOURCE/deepmd-kit/install
  source:             v2.1.3
  source branch:       master
  source commit:      5a32c49
  source commit at:   2022-07-01 09:52:58 +0800
  surpport model ver.:1.1 
  build float prec:   double
  build with tf inc:  /u/sigbjobo/software/DEEPMD_FROM_SOURCE/tensorflow/install/include;/u/sigbjobo/software/DEEPMD_FROM_SOURCE/tensorflow/install/include
  build with tf lib:  /u/sigbjobo/software/DEEPMD_FROM_SOURCE/tensorflow/install/lib/libtensorflow_cc.so;/u/sigbjobo/software/DEEPMD_FROM_SOURCE/tensorflow/install/lib/libtensorflow_framework.so
  set tf intra_op_parallelism_threads: 0
  set tf inter_op_parallelism_threads: 0
  >>> Info of lammps module:
  use deepmd-kit at:  /u/sigbjobo/software/DEEPMD_FROM_SOURCE/deepmd-kit/install
  source:             v2.1.3
  source branch:      master
  source commit:      5a32c49
  source commit at:   2022-07-01 09:52:58 +0800
  build float prec:   double
  build with tf inc:  /u/sigbjobo/software/DEEPMD_FROM_SOURCE/tensorflow/install/include;/u/sigbjobo/software/DEEPMD_FROM_SOURCE/tensorflow/install/include
  build with tf lib:  /u/sigbjobo/software/DEEPMD_FROM_SOURCE/tensorflow/install/lib/libtensorflow_cc.so;/u/sigbjobo/software/DEEPMD_FROM_SOURCE/tensorflow/install/lib/libtensorflow_framework.so
  restoring pair style deepmd from restart
  2268 atoms
Finding 1-2 1-3 1-4 neighbors ...
  special bond factors lj:    0        0        0       
  special bond factors coul:  0        0        0       
     0 = max # of 1-2 neighbors
     0 = max # of 1-3 neighbors
     0 = max # of 1-4 neighbors
     1 = max # of special neighbors
  special bonds CPU = 0.000 seconds
  read_restart CPU = 0.028 seconds
include 	in.setup
variable	out_freq equal 500
variable	out_freq2 equal 1000
variable	out_freq3 equal 5000

timestep        0.0005

neigh_modify    delay 7 every 1

include         in.deepmd
# This is deepMD model

# create groups ###
#group ox type 2
#group hy type 1

mass 2 15.999
mass 1 1.008

pair_style      deepmd ../graph.pb
pair_coeff      * *

bond_style      none
angle_style     none
dihedral_style  none
improper_style  none
neigh_modify exclude none


neighbor        2.0 bin
neigh_modify    every 10 delay 0 check no

thermo          ${out_freq}
thermo          500
thermo_style 	custom step temp pe etotal epair emol press lx ly lz vol pxx pyy pzz pxy pxz pyz
#thermo_modify	flush yes
restart 	${out_freq} restart.lmp.${pid} restart2.lmp.${pid}
restart 	500 restart.lmp.${pid} restart2.lmp.${pid}
restart 	500 restart.lmp.0 restart2.lmp.${pid}
restart 	500 restart.lmp.0 restart2.lmp.0

include		in.dump
dump            myDump all atom ${out_freq3} dump.water.${pid}
dump            myDump all atom 5000 dump.water.${pid}
dump            myDump all atom 5000 dump.water.0
dump            myDump2 all dcd ${out_freq2} dump.dcd.${pid}
dump            myDump2 all dcd 1000 dump.dcd.${pid}
dump            myDump2 all dcd 1000 dump.dcd.0
dump_modify     myDump append yes
dump_modify     myDump2 append yes


timer           timeout 23:50:00 every 1000
New timer settings: style=normal  mode=nosync  timeout=23:50:00

fix             1 all plumed plumedfile plumed.dat outfile plumed.out
fix             3 all nph x ${pressure} ${pressure} ${pressureDamp}
fix             3 all nph x 6079.5 ${pressure} ${pressureDamp}
fix             3 all nph x 6079.5 6079.5 ${pressureDamp}
fix             3 all nph x 6079.5 6079.5 1
fix             4 all temp/csvr ${temperature} ${temperature} ${tempDamp} ${seed}
fix             4 all temp/csvr 265 ${temperature} ${tempDamp} ${seed}
fix             4 all temp/csvr 265 265 ${tempDamp} ${seed}
fix             4 all temp/csvr 265 265 0.1 ${seed}
fix             4 all temp/csvr 265 265 0.1 745823

run             40000000 upto

CITE-CITE-CITE-CITE-CITE-CITE-CITE-CITE-CITE-CITE-CITE-CITE-CITE

Your simulation uses code contributions which should be cited:

- USER-DEEPMD package:

@article{Wang_ComputPhysCommun_2018_v228_p178,
  author = {Wang, Han and Zhang, Linfeng and Han, Jiequn and E, Weinan},
  doi = {10.1016/j.cpc.2018.03.016},
  url = {https://doi.org/10.1016/j.cpc.2018.03.016},
  year = 2018,
  month = {jul},
  publisher = {Elsevier {BV}},
  volume = 228,
  journal = {Comput. Phys. Commun.},
  title = {{DeePMD-kit: A deep learning package for many-body potential energy representation and molecular dynamics}},
  pages = {178--184}
}

CITE-CITE-CITE-CITE-CITE-CITE-CITE-CITE-CITE-CITE-CITE-CITE-CITE

Generated 0 of 1 mixed pair_coeff terms from geometric mixing rule
Neighbor list info ...
  update every 10 steps, delay 0 steps, check no
  max neighbors/atom: 2000, page size: 100000
  master list distance cutoff = 8
  ghost atom cutoff = 8
  binsize = 4, bins = 12 6 6
  1 neighbor lists, perpetual/occasional/extra = 1 0 0
  (1) pair deepmd, perpetual
      attributes: full, newton on
      pair build: full/bin
      stencil: full/bin/3d
      bin: standard
Per MPI rank memory allocation (min/avg/max) = 6.15 | 6.151 | 6.153 Mbytes
   Step          Temp          PotEng         TotEng         E_pair         E_mol          Press            Lx             Ly             Lz           Volume          Pxx            Pyy            Pzz            Pxy            Pxz            Pyz      
  39374500   259.42906     -348.88782     -272.86661     -348.88782      0              4069.5943      45.959396      20.047001      20.857         19216.557      4288.5278      2999.0016      4921.2535      257.48434     -24.41633      -1385.7752    
  39375000   265.20365     -348.29601     -270.58265     -348.2964       0              5514.7252      45.756941      20.047001      20.857         19131.906      5242.8159      6097.4774      5203.8823      7.7661578      1778.6725      792.50113    
  39375500   265.41325     -347.70472     -269.92994     -347.70257      0              7102.5397      45.558816      20.047001      20.857         19049.066      8633.1011      5795.1063      6879.4117     -61.359746     -678.28234      668.58005    
  39376000   268.31999     -350.61414     -271.9876      -350.59254      0              6099.0957      45.774925      20.047001      20.857         19139.425      6104.9206      5061.8288      7130.5378     -132.45476     -113.26206      899.55728    
  39376500   262.76769     -347.00895     -270.00941     -347.02676      0              5706.129       45.914704      20.047001      20.857         19197.87       6852.1553      5399.0987      4867.1331      526.78654     -1423.624      -98.330581    
  39377000   266.51225     -347.24651     -269.14969     -347.26574      0              6389.6852      45.830113      20.047001      20.857         19162.501      4148.32        8341.8704      6678.8653      186.13141     -702.68169     -290.47006    
  39377500   263.69569     -347.29071     -270.01924     -347.29898      0              5095.1134      45.939346      20.047001      20.857         19208.173      6466.1912      4694.3617      4124.7874     -934.4087      -1500.3296     -1275.7085    
  39378000   272.34796     -352.48153     -272.67466     -352.48151      0              6598.4756      46.058844      20.047001      20.857         19258.138      6318.6847      5264.2313      8212.5109      667.03529      1566.1765      652.52453    
  39378500   265.12996     -350.13811     -272.44635     -350.16133      0              5268.4846      45.846818      20.047001      20.857         19169.485      7886.939       3895.33        4023.1849     -318.03594     -239.03004     -1489.023     
  39379000   260.03843     -348.58059     -272.38081     -348.59852      0              3029.0446      45.845848      20.047001      20.857         19169.08       4013.0674      2381.4734      2692.593      -1100.4387      2449.863       1373.9396    
  39379500   265.98271     -348.86924     -270.9276      -348.90274      0              4893.2018      46.027666      20.047001      20.857         19245.101      2665.4129      6483.7012      5530.4912     -733.77728     -2380.0432     -566.85148    
  39380000   262.98058     -349.34766     -272.28574     -349.35011      0              4938.9765      46.048198      20.047001      20.857         19253.686      4767.2707      5771.9731      4277.6856     -26.945242      1662.4779     -209.68386    
  39380500   264.79253     -348.27782     -270.68494     -348.28863      0              4747.831       45.67826       20.047001      20.857         19099.008      6057.0861      3933.9227      4252.4841      653.8662       868.57473     -1014.528     
  39381000   262.13777     -349.43952     -272.62456     -349.45266      0              4212.2686      45.524118      20.047001      20.857         19034.558      4178.9378      4659.9273      3797.9405     -606.17733     -2992.5557      1967.9844    
  39381500   267.59327     -348.61008     -270.19648     -348.64147      0              5247.7372      45.840183      20.047001      20.857         19166.711      6024.1408      5489.436       4229.6348     -736.97995      952.002       -1055.3366    
  39382000   269.29982     -348.91074     -269.99707     -348.92602      0              4144.7656      46.135253      20.047001      20.857         19290.086      4436.4682      4598.301       3399.5276      68.591807      402.94951      936.38171    
  39382500   261.59741     -347.57106     -270.91445     -347.56933      0              5154.8185      45.81246       20.047001      20.857         19155.119      7502.733       3785.7849      4175.9375     -375.58763     -133.19803     -2148.6541    
  39383000   260.96545     -347.99986     -271.52843     -348.01145      0              5606.2838      45.589422      20.047001      20.857         19061.863      5830.7017      4470.9674      6517.1824      699.4572       355.82658      1265.1045    
  39383500   276.2865      -350.2326      -269.27161     -350.25887      0              5909.1409      45.678543      20.047001      20.857         19099.126      5562.0452      6667.7423      5497.6352     -358.48662      511.11076      44.495773    
  39384000   268.8246      -347.96187     -269.18746     -347.97967      0              5265.0204      45.90109       20.047001      20.857         19192.178      3429.0991      5413.1915      6952.7706     -594.05845     -2553.5868      58.434755    
  39384500   267.64353     -345.72203     -267.29372     -345.75097      0              7956.1531      45.675745      20.047001      20.857         19097.956      8639.8008      7631.8028      7596.8556      85.719771      1389.9325     -745.1676     
  39385000   272.94619     -344.55029     -264.56812     -344.58051      0              6672.5424      45.725851      20.047001      20.857         19118.906      6695.3864      6910.8886      6411.3523      821.3018       231.33244      409.37419    
  39385500   267.63558     -346.84788     -268.42189     -346.88757      0              4039.6694      45.83671       20.047001      20.857         19165.259      4457.0644      5440.713       2221.2306     -735.58753     -281.43912     -777.26759    
  39386000   263.26955     -348.46349     -271.31689     -348.48427      0              5160.3633      45.545744      20.047001      20.857         19043.6        4630.0478      4363.8136      6487.2285     -456.8136      -2091.7416      341.61315    
  39386500   262.91505     -346.73948     -269.69676     -346.76412      0              6776.2811      45.420956      20.047001      20.857         18991.424      6747.8862      6808.9697      6771.9874      1385.4047      1033.1916      1187.0444    
  39387000   270.2523      -347.58332     -268.39054     -347.618        0              6587.8103      45.714561      20.047001      20.857         19114.186      8763.0256      2811.1479      8189.2574     -282.4182      -671.73909      136.12467    
  39387500   265.08644     -345.40119     -267.72218     -345.43693      0              6294.2414      45.897922      20.047001      20.857         19190.853      6588.7707      4707.5685      7586.3851      545.01589      354.59614      1660.7006    
  39388000   263.54403     -348.43339     -271.20636     -348.4241       0              3479.3293      45.854853      20.047001      20.857         19172.845      5090.1599      1923.0108      3424.8171      692.3728      -764.16854      867.16086    
  39388500   261.76589     -349.65856     -272.95258     -349.74708      0              4992.543       45.585852      20.047001      20.857         19060.37       7018.9883      2341.2012      5617.4395      1407.0043      1037.3519     -115.16073    
  39389000   256.50959     -349.15294     -273.98723     -349.19696      0              5607.6645      45.522859      20.047001      20.857         19034.032      6930.2684      4091.0993      5801.6259      567.31957     -371.89324     -277.3609     
  39389500   261.87269     -346.31506     -269.57778     -346.33837      0              4842.2387      45.605075      20.047001      20.857         19068.407      3300.2891      4839.0883      6387.3389     -177.44978     -371.84713     -1084.5057    
  39390000   266.43053     -348.34635     -270.27348     -348.3675       0              8592.518       45.772114      20.047001      20.857         19138.25       7409.6439      7095.381       11272.529      1294.451       862.00718     -425.26956    
  39390500   265.3226      -347.43633     -269.68812     -347.45735      0              4540.7753      45.795628      20.047001      20.857         19148.082      7041.2593      2256.4028      4324.6639      465.48088      42.987492     -772.56652    
  39391000   268.06761     -347.98552     -269.43293     -348.00723      0              6196.6915      45.588739      20.047001      20.857         19061.577      7497.6102      6017.2528      5075.2115     -894.52601     -586.27875     -1351.5694    
  39391500   270.47419     -349.27101     -270.01322     -349.24705      0              6856.5686      45.688528      20.047001      20.857         19103.301      9113.7655      5144.2586      6311.6817      1336.6601      612.29123      862.02973    
  39392000   263.05735     -347.13244     -270.04802     -347.16986      0              3918.8631      45.846684      20.047001      20.857         19169.429      3763.6153      4428.7872      3564.1869     -759.91036     -27.587948     -570.1272     
  39392500   259.41475     -349.35323     -273.33621     -349.41517      0              6651.1017      45.440694      20.047001      20.857         18999.677      8352.9252      5153.8798      6446.5001      136.38326      108.2271      -580.37823    
  39393000   259.42409     -348.13915     -272.1194      -348.17465      0              5407.6025      45.548485      20.047001      20.857         19044.746      6745.6851      4357.5445      5119.5778     -1142.0323     -566.61331     -721.27201    
  39393500   265.46802     -348.52355     -270.73273     -348.56507      0              3113.588       45.67656       20.047001      20.857         19098.297      2010.4762      2839.6211      4490.6666      1229.5042      2158.5893     -1824.8434    
  39394000   261.4298      -349.04        -272.43251     -349.06105      0              7125.79        45.797011      20.047001      20.857         19148.66       6224.3322      7350.9883      7802.0494     -140.30404     -124.07354     -133.65433    
  39394500   261.94825     -350.39001     -273.6306      -350.40118      0              5153.2207      45.836588      20.047001      20.857         19165.208      6642.7089      3767.1521      5049.8011      568.29511     -1046.4792     -1024.4942    
  39395000   260.80882     -348.09402     -271.6685      -348.11067      0              6582.6776      45.766721      20.047001      20.857         19135.995      6431.0498      6634.688       6682.295       870.96803      1526.8564      817.39286    
  39395500   261.03134     -349.57075     -273.08002     -349.59096      0              6650.032       45.602073      20.047001      20.857         19067.152      11548.014      4797.0995      3604.9826     -532.58288     -35.207714     -208.7519     
  39396000   261.66372     -351.0405      -274.36446     -351.05659      0              5823.3538      45.647185      20.047001      20.857         19086.015      4564.8797      7905.0849      5000.0969     -305.75722      1316.8227      428.39627    
  39396500   266.35445     -349.73342     -271.68285     -349.75237      0              3862.6259      46.153534      20.047001      20.857         19297.729      2850.2572      4881.3778      3856.2427      1203.6899     -1399.0388     -300.33546    
  39397000   264.5085      -347.92247     -270.41282     -347.9486       0              5125.4497      46.053665      20.047001      20.857         19255.972      6563.7537      4590.7277      4221.8678     -13.725955      286.13522      120.51769    
  39397500   259.96557     -349.45648     -273.27806     -349.4675       0              5349.0986      45.445208      20.047001      20.857         19001.564      6740.5274      3792.5349      5514.2336     -710.82263     -874.72341     -1345.9917    
  39398000   270.69442     -349.87218     -270.54985     -349.88226      0              4073.6341      45.641208      20.047001      20.857         19083.516      1304.3191      5209.4487      5707.1346     -4.4955253     -530.75138     -790.00975    
  39398500   265.68797     -346.30376     -268.44849     -346.27156      0              6078.4269      45.865588      20.047001      20.857         19177.333      4343.9994      4793.5398      9097.7416     -651.75643      1491.7581     -1596.0639    
  39399000   264.95237     -347.95707     -270.31735     -347.97663      0              5572.2334      45.729126      20.047001      20.857         19120.276      7120.653       1430.058       8165.9893      736.41179     -1268.8088      853.21505    
  39399500   272.354       -347.24505     -267.43641     -347.27737      0              6307.0405      45.739675      20.047001      20.857         19124.687      5625.6123      7400.3375      5895.1716     -573.06333     -68.113347      433.3137     
  39400000   265.38374     -347.52668     -269.76056     -347.516        0              5815.6965      45.605023      20.047001      20.857         19068.386      6764.3432      5296.1171      5386.6292     -580.10474      1447.1532      754.62844    
  39400500   265.62284     -344.05716     -266.22097     -344.04484      0              6034.3691      45.693781      20.047001      20.857         19105.497      3918.929       8007.8168      6176.3614     -419.78929     -977.42496     -432.78084    
  39401000   259.36965     -347.64712     -271.64332     -347.6784       0              5849.8782      45.935677      20.047001      20.857         19206.639      6098.7322      5464.3831      5986.5192      554.44259     -109.98851      665.94681    
  39401500   270.56854     -347.68043     -268.39498     -347.69896      0              5330.2104      45.891269      20.047001      20.857         19188.071      8747.9769      1516.2947      5726.3595     -251.84741     -675.80796      581.97339    
  39402000   268.67684     -348.70821     -269.9771      -348.72487      0              4031.1059      45.790271      20.047001      20.857         19145.842      4563.54        3828.1552      3701.6225      72.059796     -393.03999      605.93311    
  39402500   269.93091     -350.98933     -271.89073     -351.00346      0              4026.8832      45.737247      20.047001      20.857         19123.671      5140.9598      4597.6156      2342.0741      109.44484     -20.238694     -513.60743    
  39403000   264.69045     -347.99925     -270.43627     -348.02233      0              2714.1639      45.847835      20.047001      20.857         19169.91       4374.617       2736.2442      1031.6305     -872.3378      -1745.1392     -254.99336    
  39403500   264.30979     -350.37313     -272.92171     -350.37796      0              6513.3122      45.839595      20.047001      20.857         19166.465      7192.1847      7332.9027      5014.8492     -1586.2403     -1013.6945      730.35114    
  39404000   264.22655     -347.1414      -269.71436     -347.17413      0              5375.247       45.823647      20.047001      20.857         19159.797      7170.3855      1896.4259      7058.9298     -985.20429      11.463282      664.28453    
  39404500   280.0725      -347.74377     -265.67336     -347.71384      0              5943.7031      45.812604      20.047001      20.857         19155.18       4550.2117      6349.0359      6931.8619     -462.03445      1016.3601      1009.9002    
  39405000   269.81812     -347.34964     -268.2841      -347.36837      0              5566.6745      45.944507      20.047001      20.857         19210.331      6405.7151      6220.5475      4073.7608      352.69672     -192.45554      672.10677    
  39405500   271.10545     -346.25343     -266.81066     -346.27171      0              4165.6926      45.889697      20.047001      20.857         19187.414      3813.5689      2507.5487      6175.9603     -2522.611      -39.112461      7.0567988    
  39406000   268.62158     -348.27552     -269.5606      -348.27193      0              3112.2551      45.760348      20.047001      20.857         19133.331      5328.9987      2874.5324      1133.2342     -881.74825     -2106.3434      1311.3253    
  39406500   268.27277     -349.50575     -270.89305     -349.52245      0              5461.8036      45.851801      20.047001      20.857         19171.569      4469.4715      7247.4588      4668.4806     -268.53365     -356.8683       1568.1522    
  39407000   265.03655     -345.77512     -268.11073     -345.79107      0              4498.2377      45.704604      20.047001      20.857         19110.023      6845.2482      3449.9036      3199.5612     -1114.6213      555.61543      1498.5429    
  39407500   265.44544     -346.31242     -268.52822     -346.31843      0              5682.9414      45.742852      20.047001      20.857         19126.015      5581.0978      5432.6641      6035.0623      302.12192      2818.2673      252.25186    
  39408000   259.5144      -349.37651     -273.33029     -349.40198      0              6402.9843      46.061794      20.047001      20.857         19259.371      7445.8902      5518.3168      6244.746       411.08544      1862.2031      807.00183    
  39408500   261.69402     -349.93064     -273.24572     -349.92451      0              5025.861       45.773572      20.047001      20.857         19138.859      6976.4508      3893.3563      4207.7757      431.62153      1579.0628      1834.1406    
  39409000   255.20551     -349.26584     -274.48227     -349.27818      0              7801.3938      45.622976      20.047001      20.857         19075.892      8878.5889      4927.6028      9597.9896      1145.2829     -1083.4239     -883.34471    
  39409500   264.90265     -352.03269     -274.40754     -352.04196      0              7795.6099      45.777931      20.047001      20.857         19140.682      7771.6821      7687.385       7927.7626     -1465.9541      1293.362      -49.375803    
  39410000   267.27426     -350.86436     -272.54425     -350.87195      0              4789.7179      45.875488      20.047001      20.857         19181.473      6598.1104      3697.3812      4073.662      -1748.2723      939.24164      540.5052     
  39410500   269.02893     -351.52421     -272.68992     -351.55585      0              7360.7982      45.658472      20.047001      20.857         19090.734      9262.7946      6854.6831      5964.917      -287.53185     -1605.7707      1053.9263    
  39411000   264.01516     -351.53266     -274.16757     -351.53216      0              4471.6781      45.708691      20.047001      20.857         19111.732      7276.3904      2612.0356      3526.6083     -1148.004      -1346.0654     -91.117779    
  39411500   266.67457     -352.02408     -273.8797      -352.04683      0              2271.7994      45.889677      20.047001      20.857         19187.405      2039.3584      2435.6168      2340.4232      723.88108      69.501104      615.52511    
  39412000   259.44793     -349.20596     -273.17922     -349.22677      0              4033.4164      45.78183       20.047001      20.857         19142.312      4729.3119      4060.7073      3310.2299     -435.06583      597.12551      328.18983    
  39412500   268.4707      -349.56157     -270.89086     -349.5475       0              3841.8023      45.692815      20.047001      20.857         19105.093      6505.9516      2344.4594      2674.996      -1601.6209      829.99852     -1383.8195    
  39413000   264.40888     -349.47639     -271.99593     -349.473        0              6676.1771      45.792476      20.047001      20.857         19146.764      6493.7848      7517.6442      6017.1023     -1247.9291      704.31658      270.53041    
  39413500   266.10495     -350.42122     -272.44376     -350.41385      0              4200.309       45.738422      20.047001      20.857         19124.163      2826.2514      6234.5461      3540.1294     -108.95859     -968.71473      649.22273    
  39414000   276.678       -350.34932     -269.27361     -350.35371      0              6066.5782      45.582338      20.047001      20.857         19058.901      6914.9643      6113.9083      5170.8622     -561.79299      1646.379       614.7233     
  39414500   265.92968     -349.91845     -271.99235     -349.90779      0              6022.8607      45.601507      20.047001      20.857         19066.916      9057.9265      4790.6509      4220.0046     -412.15861      1000.7494     -2157.2193    
  39415000   263.93595     -350.76017     -273.41829     -350.76055      0              4236.5697      45.621314      20.047001      20.857         19075.197      6220.1512      1972.2112      4517.3466     -2756.5287      80.578038     -193.19234    
  39415500   257.60971     -349.12825     -273.64016     -349.13339      0              6195.4805      45.712654      20.047001      20.857         19113.389      6516.104       5542.0209      6528.3166      229.54509     -1005.7659     -104.83378    
  39416000   260.98088     -347.72158     -271.24563     -347.70691      0              4000.209       45.670682      20.047001      20.857         19095.839      3221.5964      6567.541       2211.4897     -347.89825      120.76812      790.4643     
  39416500   264.05645     -349.59001     -272.21282     -349.58537      0              4277.9652      45.883456      20.047001      20.857         19184.804      4685.6717      3864.8524      4283.3715      65.080687      530.61376     -632.02544    
  39417000   265.13088     -350.44771     -272.75568     -350.43388      0              5747.4433      45.838326      20.047001      20.857         19165.935      6032.0262      5409.9054      5800.3983     -992.72246     -1463.8269      1037.834     
  39417500   256.19097     -346.37667     -271.30433     -346.39557      0              5688.9539      45.557749      20.047001      20.857         19048.62       4454.443       5548.147       7064.2715     -763.23467      1587.7532      344.67614    
  39418000   270.95142     -349.84714     -270.4495      -349.86152      0              6064.5932      45.364244      20.047001      20.857         18967.711      3412.2621      5486.7793      9294.7382     -1537.5436     -1297.6699     -577.95867    
  39418500   259.18932     -349.03693     -273.08597     -349.02294      0              5573.2074      45.512321      20.047001      20.857         19029.625      5217.2117      5391.4669      6110.9435      1695.3734      3513.4647      2639.4308    
  39419000   259.62905     -347.81564     -271.73582     -347.82058      0              6866.638       45.740588      20.047001      20.857         19125.069      3848.5772      9612.3061      7139.0307     -1579.2568      410.86336     -80.804232    
  39419500   262.99626     -350.55274     -273.48622     -350.53481      0              5144.7676      45.627853      20.047001      20.857         19077.932      6233.7845      6607.8076      2592.7107      511.44475     -1020.6187      656.32045    
  39420000   260.00645     -350.70474     -274.51434     -350.67573      0              5435.1503      45.618824      20.047001      20.857         19074.156      5837.067       6835.9019      3632.482      -166.01397      361.49623     -1060.8792    
  39420500   264.39524     -349.8314      -272.35493     -349.8507       0              5128.1738      45.820039      20.047001      20.857         19158.288      4335.8256      4168.7411      6879.9548     -627.9141      -986.10421      467.19911    
  39421000   277.49414     -352.42701     -271.11214     -352.4412       0              6192.4709      45.569963      20.047001      20.857         19053.727      7294.449       6445.3293      4837.6346     -215.52723      2059.9555      2196.8483    
  39421500   264.58883     -349.55974     -272.02654     -349.54969      0              6276.6308      45.30676       20.047001      20.857         18943.676      7194.8209      7061.6782      4573.3934      392.45113     -640.82937     -2414.5267    
  39422000   272.9182      -351.72832     -271.75435     -351.70466      0              8019.7494      45.662716      20.047001      20.857         19092.508      9096.7575      6524.0275      8438.4631      193.45349      961.64933      2006.3061    
  39422500   262.44571     -350.85164     -273.94645     -350.8487       0              6929.207       45.959557      20.047001      20.857         19216.624      7297.7333      7540.0452      5949.8424     -1003.7399     -546.62006      136.77302    
  39423000   268.65979     -350.11252     -271.38641     -350.09915      0              4864.0148      45.627093      20.047001      20.857         19077.614      6212.2687      4979.8341      3399.9415     -654.48718      1036.4124     -37.25087     
  39423500   268.50757     -347.52722     -268.84571     -347.5387       0              7122.4587      45.256333      20.047001      20.857         18922.592      6693.5048      6393.4376      8280.4337      293.20176      1114.0624     -2055.3955    
  39424000   274.06865     -346.35084     -266.03975     -346.37251      0              7550.4709      45.53839       20.047001      20.857         19040.525      10519.495      6790.6129      5341.3048      347.38637      233.27431      191.78142    
  39424500   270.70919     -349.57545     -270.24879     -349.59141      0              3374.7422      45.6839        20.047001      20.857         19101.366      3317.5838      2396.1261      4410.5166     -25.607424     -893.97662     -757.56614    
  39425000   261.32102     -348.45897     -271.88335     -348.45826      0              6093.2091      45.677818      20.047001      20.857         19098.823      8283.709       4932.7605      5063.1579     -809.13731     -45.275402     -14.078539    
  39425500   272.60879     -348.77041     -268.8871      -348.72695      0              6499.7036      45.547107      20.047001      20.857         19044.17       7825.4151      6420.1873      5253.5084      540.071        2306.6218      2280.3419    
  39426000   262.18866     -347.98129     -271.15142     -347.97166      0              4248.1848      45.542679      20.047001      20.857         19042.319      6658.3951      2355.3422      3730.817      -895.10661      435.33591     -593.45493    
  39426500   265.91773     -350.77187     -272.84927     -350.77588      0              5944.2973      45.499277      20.047001      20.857         19024.171      5427.1457      5562.9745      6842.7716      702.54336      1214.803       2481.3939    
  39427000   268.52961     -349.28771     -270.59974     -349.25826      0              6823.2752      45.506805      20.047001      20.857         19027.319      7229.6048      5893.9827      7346.2381     -297.99558     -1124.7258     -366.99584    
  39427500   269.63874     -351.39677     -272.38379     -351.39104      0              5425.8365      45.509023      20.047001      20.857         19028.246      4999.383       5286.0069      5992.1195      1382.7812     -166.24109     -611.94138    
  39428000   258.77183     -348.12647     -272.29784     -348.1249       0              5864.4603      45.224493      20.047001      20.857         18909.279      7455.2524      4507.9214      5630.2072     -1463.4043     -1639.0369      382.99056    
  39428500   266.77312     -348.5381      -270.36484     -348.50567      0              5155.0574      45.462582      20.047001      20.857         19008.829      8875.988       2054.9342      4534.2499     -1047.9633     -206.83619     -1128.5103    
  39429000   259.76124     -351.10321     -274.98466     -351.06354      0              5087.5846      45.659821      20.047001      20.857         19091.298      4797.755       5600.7855      4864.2133      402.63384      291.34205      969.59577    
  39429500   262.81452     -347.66572     -270.65245     -347.64342      0              3089.457       45.446444      20.047001      20.857         19002.081      3614.7153      648.19653      5005.4592     -2076.0823     -1583.5051     -436.31315    
  39430000   264.72085     -349.70358     -272.1317      -349.69872      0              6011.0779      45.450717      20.047001      20.857         19003.867      6815.7807      6877.6776      4339.7755      558.02999     -73.530419     -1446.3571    
  39430500   269.06612     -347.57978     -268.7346      -347.56885      0              4827.089       45.65003       20.047001      20.857         19087.204      3310.6739      4770.0206      6400.5723     -1701.3548      552.7715       34.317685    
  39431000   267.1155      -349.84015     -271.56656     -349.82998      0              4198.712       45.642537      20.047001      20.857         19084.071      6469.2012      2780.6244      3346.3103     -781.11052      1413.5387      549.10894    
  39431500   256.10803     -350.07191     -275.02387     -350.04395      0              4940.7113      45.64525       20.047001      20.857         19085.206      7073.2757      5040.8164      2708.0418     -23.703818      875.87868      342.17516    
  39432000   265.19722     -350.74774     -273.03627     -350.71115      0              4281.1336      45.464255      20.047001      20.857         19009.528      3484.2378      3509.3139      5849.8492      126.42668     -8.6331798      20.936774    
  39432500   261.87246     -350.07249     -273.33529     -350.05426      0              4547.4214      45.275094      20.047001      20.857         18930.436      6492.7362      4929.6245      2219.9036      230.64884      343.26586     -1076.8418    
  39433000   268.57718     -350.61342     -271.91151     -350.61143      0              5634.318       45.601391      20.047001      20.857         19066.867      7592.4365      4116.8928      5193.6246     -830.70375      141.60916      1889.9678    
  39433500   263.57806     -350.70036     -273.46336     -350.69154      0              4959.7454      45.710516      20.047001      20.857         19112.495      6004.0702      2835.7391      6039.4269      225.07723      338.48658     -1259.0212    
  39434000   270.48687     -351.18337     -271.92186     -351.13463      0              5428.6158      45.441538      20.047001      20.857         19000.029      5362.8837      5538.461       5384.5027     -302.56467      739.21983      789.27309    
  39434500   263.89328     -351.17429     -273.84492     -351.12638      0              6715.0854      45.414407      20.047001      20.857         18988.685      8964.2807      5960.5387      5220.4368     -231.70959     -2018.7428     -8.1153208    
  39435000   263.93973     -351.77344     -274.43045     -351.76311      0              5456.2656      45.980368      20.047001      20.857         19225.325      5722.709       4266.0993      6379.9884     -1231.2114     -95.391419      61.878741    
  39435500   261.96918     -351.11254     -274.34699     -351.09359      0              4694.8689      46.039973      20.047001      20.857         19250.247      4767.9276      5677.8335      3638.8457     -130.45435     -1161.5441     -2732.1743    
  39436000   270.56376     -350.4855      -271.20146     -350.45283      0              8752.4354      45.398003      20.047001      20.857         18981.826      9399.9637      6729.2045      10128.138     -650.52683      381.41763      2496.5629    
  39436500   260.4458      -348.46483     -272.14568     -348.4721       0              5341.7754      45.463394      20.047001      20.857         19009.168      7539.425       2674.7001      5811.2012      452.68124     -908.87425      863.0921     
  39437000   265.56946     -351.50371     -273.68316     -351.48328      0              5150.605       45.597265      20.047001      20.857         19065.142      6242.2227      5346.5168      3863.0755     -479.81399      850.87612     -791.4812     
  39437500   276.43531     -349.04003     -268.03543     -349.02618      0              7689.0681      45.511574      20.047001      20.857         19029.313      9342.4887      7252.9248      6471.791       298.87026     -402.28806      1195.1965    
  39438000   265.39677     -350.48319     -272.71324     -350.44496      0              4410.3301      45.43338       20.047001      20.857         18996.618      4414.6147      4815.8361      4000.5394     -601.33794      224.05371     -710.67976    
  39438500   271.38942     -349.58224     -270.05625     -349.57557      0              8194.2546      45.592312      20.047001      20.857         19063.071      7903.9616      8392.965       8285.8371      115.79444      1624.7519      684.73797    
  39439000   264.08715     -351.98051     -274.59433     -351.98403      0              6024.9291      45.532153      20.047001      20.857         19037.917      6083.4418      5675.0466      6316.2989     -1097.7257      138.95586     -958.9176     
  39439500   261.16052     -353.162       -276.63342     -353.1625       0              6361.957       45.37142       20.047001      20.857         18970.712      7025.0549      6153.6294      5907.1867      323.50408      2034.8688      330.24994    
  39440000   259.45688     -351.34876     -275.31939     -351.376        0              4039.7885      45.459964      20.047001      20.857         19007.734      4849.3024      2421.8584      4848.2048     -311.45783     -1325.1858      702.56638    
  39440500   269.61878     -350.91835     -271.91122     -350.91438      0              6242.7808      45.731671      20.047001      20.857         19121.34       8331.6983      4277.9963      6118.648       6.9788569      553.19408      304.18412    
  39441000   271.77757     -350.23768     -270.59795     -350.21964      0              4602.5299      45.801554      20.047001      20.857         19150.559      5572.0549      4899.692       3335.8428      1215.5324      1531.2459      1099.776     
  39441500   261.67359     -350.64034     -273.96141     -350.61162      0              5197.4354      45.660969      20.047001      20.857         19091.778      7435.7912      1895.4848      6261.0302      340.3847       211.74695     -840.11527    
  39442000   256.13128     -348.53075     -273.4759      -348.5469       0              4708.4828      45.657528      20.047001      20.857         19090.339      5435.9224      3464.4432      5225.0828     -916.41592      852.94293      1222.1065    
  39442500   263.92455     -352.65338     -275.31484     -352.67943      0              6559.6427      45.57341       20.047001      20.857         19055.168      7071.0064      7418.0948      5189.827      -1175.4914     -1235.809      -844.55231    
  39443000   269.22907     -351.35372     -272.46078     -351.35658      0              2654.4779      45.779447      20.047001      20.857         19141.316      541.05345      5060.2059      2362.1744      992.69018     -1907.1058      2582.6483    
  39443500   264.74377     -352.97748     -275.39888     -352.95348      0              5585.6082      45.770986      20.047001      20.857         19137.778      3484.9876      7320.6273      5951.2098      934.01648     -50.434733      177.68565    
  39444000   265.79277     -352.45949     -274.57351     -352.44445      0              5536.2511      45.621346      20.047001      20.857         19075.211      3400.6843      3992.9325      9215.1366     -1405.0688     -617.67915      606.49921    
  39444500   259.26442     -350.79985     -274.82688     -350.74961      0              5732.8857      45.705834      20.047001      20.857         19110.537      5688.5019      7827.3089      3682.8461     -1229.0599     -116.88968     -1427.0359    
  39445000   259.39961     -350.83993     -274.82735     -350.81151      0              5946.2539      45.604394      20.047001      20.857         19068.123      6113.2542      6643.4238      5082.0836     -1006.2061      1494.1999      620.22107    
  39445500   258.59997     -351.91498     -276.13672     -351.90693      0              6095.5684      45.692267      20.047001      20.857         19104.864      6148.0456      5596.0666      6542.593       257.88914     -293.88831      1401.0518    
  39446000   265.14772     -351.4617      -273.76473     -351.46141      0              4123.1458      45.772275      20.047001      20.857         19138.317      4834.6795      2491.1563      5043.6014     -30.939191     -1379.3617     -1873.1956    
  39446500   271.4057      -348.61064     -269.07988     -348.60513      0              6137.1884      45.673423      20.047001      20.857         19096.985      4781.5574      6478.4461      7151.5617     -1372.5336      643.80484     -1253.454     
  39447000   270.406       -352.82975     -273.59193     -352.8107       0              5750.1199      45.722156      20.047001      20.857         19117.362      7887.9919      5075.2857      4287.0819      1814.1443     -45.897202     -1536.0085    
  39447500   269.03647     -353.39498     -274.55849     -353.40934      0              7290.1241      45.592524      20.047001      20.857         19063.16       6606.2239      8432.8468      6831.3016      508.81683      245.28908     -526.47413    
  39448000   267.3621      -349.59628     -271.25043     -349.6009       0              4876.2183      45.593248      20.047001      20.857         19063.462      6430.5314      4552.6459      3645.4777      73.207339      2008.64       -1951.3987    
  39448500   268.19731     -351.7355      -273.14491     -351.74875      0              5649.8591      45.761528      20.047001      20.857         19133.824      3784.618       6792.8606      6372.0987     -720.155        31.084328     -494.83179    
  39449000   260.14055     -350.1509      -273.9212      -350.15135      0              6812.6903      45.642176      20.047001      20.857         19083.92       6902.9111      7527.1418      6008.0181      118.35039     -902.34605      646.97524    
  39449500   264.75329     -349.95732     -272.37593     -349.95856      0              5925.5034      45.559894      20.047001      20.857         19049.517      6821.3786      5787.4876      5167.6441      599.4253      -231.94857     -565.4489     
  39450000   265.28069     -351.41979     -273.68386     -351.41515      0              3463.3238      45.815147      20.047001      20.857         19156.243      3921.8759      1761.4323      4706.6631      285.89952      691.13306     -254.81368    
  39450500   262.79469     -350.77294     -273.76549     -350.79812      0              8312.8101      45.842761      20.047001      20.857         19167.789      7205.4224      7991.7969      9741.2109     -690.2932       1948.5493      1846.3837    
  39451000   255.15734     -353.53134     -278.76188     -353.51748      0              4276.4587      45.601075      20.047001      20.857         19066.735      5023.9587      3195.9207      4609.4966     -402.2542      -430.99921     -1206.4378    
  39451500   258.36626     -353.81809     -278.10832     -353.81144      0              4017.838       45.499869      20.047001      20.857         19024.419      5559.6141      4105.6878      2388.2121      98.829997     -665.94459     -258.83429    
  39452000   260.8688      -352.53928     -276.09617     -352.54956      0              4845.093       45.855934      20.047001      20.857         19173.297      4175.046       5507.0983      4853.1346     -35.618946      408.53511      1722.3961    
  39452500   269.3695      -348.96115     -270.02706     -348.96691      0              6213.0826      45.941786      20.047001      20.857         19209.193      7723.5253      6438.286       4477.4363     -103.21087     -1065.3148      1485.6602    
  39453000   263.68326     -352.16272     -274.89489     -352.11097      0              5905.6359      45.630558      20.047001      20.857         19079.062      8957.7213      4001.6664      4757.52        214.08101      302.85808      1037.0911    
  39453500   261.09078     -352.77108     -276.26293     -352.72191      0              5916.2053      45.263882      20.047001      20.857         18925.748      6961.0491      5329.6401      5457.9268     -1123.6337      837.5055       1793.1458    
  39454000   265.04103     -351.66236     -273.99666     -351.6428       0              4712.4592      45.275627      20.047001      20.857         18930.659      5760.4636      5509.7712      2867.1428     -929.38558     -757.49946      1262.8278    
  39454500   266.43132     -351.95799     -273.88489     -351.95979      0              6415.73        45.509628      20.047001      20.857         19028.499      5184.3384      6702.2171      7360.6346     -623.58013      2589.1536     -107.3529     
  39455000   264.49616     -351.3815      -273.87546     -351.37824      0              6488.7327      45.596941      20.047001      20.857         19065.007      6203.5613      8168.4318      5094.2051     -1400.2099      2259.6291      795.32729    
  39455500   259.65102     -349.8341      -273.74785     -349.77865      0              7791.2308      45.171134      20.047001      20.857         18886.968      9500.0271      9498.9769      4374.6884     -780.80864      1890.4969      689.9142     
  39456000   269.01538     -353.17501     -274.34469     -353.1034       0              7337.9728      45.279627      20.047001      20.857         18932.331      9883.4998      4706.3678      7424.051      -1817.5867      213.60873     -1315.6707    
  39456500   264.97773     -353.08413     -275.43697     -353.04188      0              3545.1384      45.805859      20.047001      20.857         19152.359      4875.7421      2687.1404      3072.5326     -259.47073      1428.594       1176.2525    
  39457000   274.47715     -350.19911     -269.76832     -350.18159      0              4976.5397      45.652941      20.047001      20.857         19088.421      4639.2594      5530.9324      4759.4275      88.757096     -331.31611      1867.9668    
  39457500   268.37924     -351.18774     -272.54383     -351.1466       0              5028.4686      45.37005       20.047001      20.857         18970.139      7536.4026      4152.3786      3396.6246     -970.52819      366.70842      524.40133    
  39458000   264.79545     -351.24824     -273.6545      -351.20122      0              5651.7433      45.325204      20.047001      20.857         18951.388      5486.5327      4772.4293      6696.268       186.23373      704.43528     -2454.4574    
  39458500   268.69023     -348.83057     -270.09554     -348.79308      0              6412.1189      45.505608      20.047001      20.857         19026.818      6350.4946      6776.7139      6109.1481     -656.47418     -91.429487     -4.2809608    
  39459000   259.91428     -350.27739     -274.11399     -350.2565       0              4439.2216      45.506395      20.047001      20.857         19027.148      5330.8786      3041.1958      4945.5904     -943.15782     -2082.4241     -61.110653    
  39459500   260.00943     -349.94898     -273.7577      -349.93648      0              5502.8042      45.346338      20.047001      20.857         18960.225      6945.9824      3691.6432      5870.7869      24.636124     -397.50638     -152.93921    
  39460000   276.15719     -351.42057     -270.49747     -351.37326      0              9488.8974      45.308562      20.047001      20.857         18944.43       9094.3985      9718.6362      9653.6576      435.95624     -301.1953      -1114.5982    
  39460500   269.50128     -351.49566     -272.52296     -351.47943      0              5952.9816      45.518191      20.047001      20.857         19032.08       7448.3716      5044.2517      5366.3216      464.10509     -653.25658      212.59238    
  39461000   263.79164     -352.73692     -275.43733     -352.76457      0              5085.8716      45.487168      20.047001      20.857         19019.109      5375.8802      5845.152       4036.5825     -52.989019     -453.87318      830.03878    
  39461500   265.5891      -351.79341     -273.96711     -351.78859      0              6799.874       45.393087      20.047001      20.857         18979.771      7676.5802      5985.4901      6737.5516      533.9392      -225.44785     -235.34552    
  39462000   264.46835     -350.32545     -272.82756     -350.32027      0              9212.7596      45.575428      20.047001      20.857         19056.012      9742.2945      10437.543      7458.4416     -1335.3099      1077.6517     -631.43233    
  39462500   275.11468     -351.62506     -271.00744     -351.6146       0              6973.3601      45.480844      20.047001      20.857         19016.464      9194.037       5543.5605      6182.4828     -994.88447      884.13378     -118.9819     
  39463000   266.33962     -350.14425     -272.09802     -350.09331      0              4921.7578      45.4052        20.047001      20.857         18984.836      6018.0777      3781.6951      4965.5006      300.82914      775.75836      1467.922     
  39463500   260.30804     -353.01224     -276.73346     -352.99438      0              6301.5115      45.369143      20.047001      20.857         18969.76       8042.8988      5160.3565      5701.2793     -1315.4508      783.30331     -90.06709     
  39464000   254.14238     -351.25055     -276.77851     -351.25209      0              6594.4593      45.370407      20.047001      20.857         18970.288      5958.4675      6431.3451      7393.5653      1102.9566      1150.6286     -123.12131    
  39464500   258.55539     -353.15016     -277.38497     -353.0985       0              7099.0379      45.367911      20.047001      20.857         18969.245      7645.1238      5095.0897      8556.9003     -604.64007     -1497.0292     -1152.8785    
  39465000   266.91748     -351.13924     -272.92368     -351.10152      0              6731.087       45.403786      20.047001      20.857         18984.245      7208.2375      7125.8853      5859.138       348.27762     -363.19483      956.10521    
  39465500   264.05856     -351.97638     -274.59857     -351.97559      0              6056.5595      45.753833      20.047001      20.857         19130.607      5198.1036      6735.6826      6235.8925     -55.529865      669.06283     -504.07144    
  39466000   264.21322     -353.12437     -275.70124     -353.09381      0              5262.0936      46.006882      20.047001      20.857         19236.411      3706.457       5386.3632      6693.4606     -1440.3026      64.572144     -1005.2559    
  39466500   268.62757     -351.29561     -272.57893     -351.25963      0              7485.9045      45.58762       20.047001      20.857         19061.109      8025.3972      7824.2924      6608.0239      1507.1935      968.63832     -648.30896    
  39467000   270.51844     -351.11859     -271.84783     -351.09597      0              5446.5109      45.579736      20.047001      20.857         19057.813      5935.3048      5159.369       5244.859      -384.27371      1523.5641     -351.44084    
  39467500   262.6144      -348.59857     -271.64395     -348.60178      0              5073.3606      45.741616      20.047001      20.857         19125.498      8574.2893      4207.9731      2437.8194      1607.0003     -1050.7433      892.74086    
  39468000   261.78906     -351.00118     -274.28841     -350.97117      0              6673.9259      45.697973      20.047001      20.857         19107.25       6308.3092      6445.658       7267.8105      1551.5338     -1411.7237     -778.22385    
  39468500   260.06325     -348.83011     -272.62306     -348.78479      0              1862.8877      45.449328      20.047001      20.857         19003.287      3358.5103      1126.3683      1103.7845      186.2902      -21.891858     -868.60169    
  39469000   266.34113     -351.21677     -273.1701      -351.17264      0              4368.444       45.336116      20.047001      20.857         18955.95       3591.6965      3848.1628      5665.4726      1875.3388     -317.55059      1720.2827    
  39469500   269.79761     -352.93925     -273.87971     -352.91454      0              5485.1836      45.720909      20.047001      20.857         19116.84       5826.7708      4729.849       5898.9309     -55.15365       765.32395     -867.61154    
  39470000   262.31764     -350.27832     -273.41066     -350.24888      0              4911.571       45.810293      20.047001      20.857         19154.214      8409.5204      3330.5225      2994.6701      420.86866     -1661.6507     -146.09828    
  39470500   266.82293     -351.36839     -273.18054     -351.31945      0              7703.1254      45.453566      20.047001      20.857         19005.059      7711.7334      8129.2297      7268.4131      1015.4314     -87.270016     -715.78975    
  39471000   258.90249     -350.25215     -274.38525     -350.19962      0              4853.0647      45.456556      20.047001      20.857         19006.309      4665.6515      4845.7391      5047.8037     -937.91945     -2340.342       3145.7469    
  39471500   261.83113     -350.04706     -273.32196     -349.99739      0              3981.308       45.442916      20.047001      20.857         19000.606      4719.8251      3890.1469      3333.9518      831.05785      9.6948796      661.17165    
  39472000   262.18673     -350.60981     -273.78051     -350.55713      0              7828.4225      45.37801       20.047001      20.857         18973.467      7619.9174      9299.4378      6565.9123      2226.7651     -1859.4523      210.21972    
  39472500   259.912       -349.78639     -273.62367     -349.74773      0              4214.2511      45.442883      20.047001      20.857         19000.592      7847.0642      2617.6348      2178.0542      455.70504     -1117.4705      2277.1908    
  39473000   261.7489      -352.2282      -275.5272      -352.20162      0              5962.4409      45.476682      20.047001      20.857         19014.724      4887.7495      6429.9671      6569.6059      559.82351     -418.39398     -527.05355    
  39473500   269.27814     -352.60185     -273.69454     -352.56875      0              5576.2848      45.459227      20.047001      20.857         19007.426      5586.3728      5328.6587      5813.823       476.25211      1066.4829     -848.39565    
  39474000   264.46968     -349.02227     -271.52399     -349.00371      0              5019.7955      45.497028      20.047001      20.857         19023.231      5141.7287      3987.9002      5929.7576      777.5879      -258.52409     -618.75022    
  39474500   265.03242     -349.42277     -271.75959     -349.38492      0              5640.599       45.720306      20.047001      20.857         19116.588      5541.5229      7307.4412      4072.8331      2236.2806      710.52155     -1115.8245    
  39475000   270.09406     -352.70158     -273.55518     -352.66201      0              6385.7978      45.909949      20.047001      20.857         19195.882      10509.482      4388.7432      4259.1685     -436.01387      37.523896     -811.83008    
  39475500   267.46855     -352.01447     -273.63743     -351.98654      0              6812.9138      45.591643      20.047001      20.857         19062.791      8872.0906      4123.0915      7443.5593     -125.82112     -358.46144     -892.49573    
  39476000   260.56052     -350.45571     -274.10295     -350.48205      0              4989.116       45.474758      20.047001      20.857         19013.92       4925.0538      5118.1911      4924.1031      1313.3497      1546.5986     -1722.5041    
  39476500   270.14664     -352.25588     -273.09407     -352.23647      0              5685.6618      45.388152      20.047001      20.857         18977.708      6847.8062      5429.9503      4779.2289      320.85918      37.860421      543.35423    
  39477000   265.90002     -352.88008     -274.96266     -352.82936      0              4454.9015      45.416654      20.047001      20.857         18989.625      6882.7968      4268.6261      2213.2816      1549.4674     -1712.8895     -881.45109    
  39477500   265.88812     -354.09169     -276.17777     -354.0193       0              4636.1665      45.791045      20.047001      20.857         19146.165      6684.1569      1808.3965      5415.9461      470.84777      496.80638     -1062.1257    
  39478000   253.6583      -350.09569     -275.7655      -350.07096      0              2896.1601      45.924795      20.047001      20.857         19202.089      4397.6901      1229.0605      3061.7295      329.28464     -1129.4569      1168.4301    
  39478500   265.67237     -352.01633     -274.16562     -351.98922      0              4739.8508      45.623564      20.047001      20.857         19076.138      4433.3904      4572.7151      5213.447       431.86754     -1769.3391     -1566.6222    
  39479000   264.38194     -352.25445     -274.78188     -352.23623      0              7443.1249      45.578726      20.047001      20.857         19057.391      9811.8034      6450.6467      6066.9246     -171.25136     -569.81958      1149.4309    
  39479500   258.98913     -350.00069     -274.10839     -349.99163      0              4332.8668      45.843076      20.047001      20.857         19167.921      5453.3481      3377.2572      4167.9951     -671.20356     -130.37147      1397.4602    
  39480000   271.89401     -350.3396      -270.66575     -350.29713      0              6018.4039      45.895302      20.047001      20.857         19189.758      9850.2341      1947.2906      6257.6869      2046.2498      62.630265      470.06218    
  39480500   264.13072     -351.80794     -274.40899     -351.77378      0              3057.37        45.808868      20.047001      20.857         19153.617      3628.7691      2302.7482      3240.5927      1774.2886     -920.93895     -1277.797     
  39481000   266.97979     -349.75407     -271.52024     -349.73055      0              6126.5205      45.665883      20.047001      20.857         19093.833      8762.8927      5053.3917      4563.2773     -1.0125493      1028.4157      744.09645    
  39481500   264.31778     -350.22788     -272.77411     -350.20878      0              5910.3834      45.796316      20.047001      20.857         19148.369      6509.9672      5103.9595      6117.2234     -743.82808      1026.9166      920.3399     
  39482000   268.37262     -350.1656      -271.52363     -350.13259      0              3909.7575      45.655452      20.047001      20.857         19089.471      2933.5906      3094.7387      5700.9432      499.29818     -533.35602      595.96702    
  39482500   267.53988     -350.28501     -271.88706     -350.26816      0              5788.9494      45.619937      20.047001      20.857         19074.622      7848.0404      4132.598       5386.2098     -431.05006     -245.35898      775.03861    
  39483000   264.53848     -349.12817     -271.60973     -349.12109      0              4915.479       45.840388      20.047001      20.857         19166.797      4604.5733      4302.0366      5839.8272      1988.9346     -1969.4904     -129.70752    
  39483500   270.69369     -351.69443     -272.37231     -351.65442      0              5166.5506      45.823609      20.047001      20.857         19159.781      3655.9405      5953.8692      5889.8423      386.28734      1022.6707      124.73866    
  39484000   270.47649     -351.91624     -272.65777     -351.92387      0              4928.9284      45.846953      20.047001      20.857         19169.542      5261.6302      3034.3852      6490.7697     -363.46167     -1080.1841     -1626.3398    
  39484500   267.61739     -351.39771     -272.97705     -351.39645      0              6209.1046      45.748035      20.047001      20.857         19128.182      8639.3706      4791.5642      5196.379      -845.19439      88.6489       -1161.4799    
  39485000   263.64585     -352.03794     -274.78107     -352.01924      0              6914.8553      45.608798      20.047001      20.857         19069.964      6939.2146      7412.8234      6392.5279      327.96577      289.34004     -1378.3399    
  39485500   262.61692     -349.67156     -272.7162      -349.63035      0              5378.8354      45.613378      20.047001      20.857         19071.879      5944.837       5878.3856      4313.2837      1340.4445      949.8117      -215.56436    
  39486000   264.94514     -351.8692      -274.23159     -351.84121      0              4772.5963      45.618176      20.047001      20.857         19073.885      5818.667       4208.6442      4290.4777     -476.02886      2162.774       180.47889    
  39486500   262.20715     -352.24034     -275.40506     -352.19122      0              4378.2295      45.648709      20.047001      20.857         19086.652      7377.1747      4823.5026      934.01122      463.22254     -1235.9273     -1512.4129    
  39487000   259.77021     -350.75851     -274.63733     -350.7183       0              4303.7011      45.742369      20.047001      20.857         19125.813      5986.5485      2052.2143      4872.3405      1917.9212     -1391.1878     -41.696578    
  39487500   262.119       -351.49825     -274.6888      -351.47503      0              6056.701       45.854527      20.047001      20.857         19172.709      7097.0289      5136.8525      5936.2217      276.85956      1020.6562      1360.8368    
  39488000   263.67752     -350.27847     -273.01232     -350.24711      0              3552.6305      46.201033      20.047001      20.857         19317.59       5825.8521      2458.6011      2373.4383      2816.6307     -71.504188     -459.67302    
  39488500   269.78121     -352.61493     -273.5602      -352.5655       0              5821.7426      45.99644       20.047001      20.857         19232.045      7008.7765      4759.7781      5696.6732      2151.813       1208.4574     -113.88687    
  39489000   270.51942     -350.5243      -271.25325     -350.51779      0              6782.6327      45.646228      20.047001      20.857         19085.615      8260.6435      6756.8947      5330.3599      1255.0406     -32.866149      823.34582    
  39489500   269.08189     -349.52379     -270.67399     -349.49884      0              4878.375       45.76456       20.047001      20.857         19135.092      8181.1031      2158.482       4295.5398      1421.4478      2186.127       1065.9391    
  39490000   263.94167     -350.34403     -273.00048     -350.35118      0              5430.0005      46.245588      20.047001      20.857         19336.219      6717.1717      4927.9094      4644.9204      1419.9311      518.911        1382.6445    
  39490500   256.69269     -350.83164     -275.61228     -350.83568      0              6047.6741      46.155016      20.047001      20.857         19298.349      5477.1216      7481.728       5184.1726     -960.13232      222.23178      919.9777     
  39491000   263.14358     -350.38631     -273.27662     -350.35833      0              8349.231       45.993791      20.047001      20.857         19230.938      8184.0273      7074.4754      9789.1903      474.06417      1795.25        60.562171    
  39491500   267.78311     -353.86733     -275.39811     -353.89369      0              6276.5233      45.947318      20.047001      20.857         19211.506      7340.1038      7081.0495      4408.4165      987.87931      926.98412     -112.26072    
  39492000   259.73236     -353.26741     -277.15732     -353.25581      0              8462.0538      45.72662       20.047001      20.857         19119.228      9071.8551      7344.9844      8969.3219      362.06633     -721.26131      1328.4866    
  39492500   265.17281     -352.80839     -275.10407     -352.79252      0              7715.3511      45.84472       20.047001      20.857         19168.608      7228.4915      9179.9599      6737.6018      650.62953      362.19805      2410.5471    
  39493000   266.24619     -353.54779     -275.52893     -353.5283       0              4151.8761      46.203937      20.047001      20.857         19318.804      3430.4822      4655.1933      4369.9529      550.71458      940.45229     -593.38653    
  39493500   266.20585     -350.66003     -272.653       -350.63103      0              7495.8129      45.97924       20.047001      20.857         19224.854      9394.1432      6878.8931      6214.4025      1307.3599      539.86071      1441.0816    
  39494000   266.20324     -350.96248     -272.95621     -350.9633       0              5771.3064      45.920489      20.047001      20.857         19200.289      6767.944       6586.0401      3959.9352     -443.16363     -91.506488     -163.86282    
  39494500   264.60404     -350.92975     -273.3921      -350.95469      0              5102.995       46.191734      20.047001      20.857         19313.702      5105.9172      5042.7054      5160.3626      96.251149     -1350.9123      1023.4014    
  39495000   260.74695     -349.8872      -273.47981     -349.90939      0              4624.5254      46.134936      20.047001      20.857         19289.953      4916.5608      4457.3582      4499.6571     -127.19903     -407.82969     -2418.6668    
  39495500   263.9048      -350.94502     -273.61227     -350.94866      0              4774.7159      45.884005      20.047001      20.857         19185.034      5576.5409      4320.9855      4426.6214      137.68216      1295.7136      541.25603    
  39496000   276.62011     -353.86678     -272.80803     -353.83163      0              6741.6997      45.869534      20.047001      20.857         19178.983      9248.048       7403.7617      3573.2895     -998.37546      293.44557      1332.9692    
  39496500   264.6205      -351.5027      -273.96023     -351.53244      0              4131.4422      46.042296      20.047001      20.857         19251.219      3629.8756      4750.4966      4013.9544     -136.0139       683.09762      184.52286    
  39497000   267.07        -350.62232     -272.36207     -350.59378      0              4994.6134      46.032177      20.047001      20.857         19246.988      4627.8281      6405.4169      3950.5951     -749.40093      400.08541     -1822.294     
  39497500   259.89837     -350.00156     -273.84283     -349.99343      0              6379.5166      45.705237      20.047001      20.857         19110.287      8435.6562      5828.6348      4874.2589     -841.4932       64.787897      332.69197    
  39498000   267.30846     -351.22949     -272.89936     -351.20728      0              6585.2721      45.686018      20.047001      20.857         19102.252      6153.1516      6821.2802      6781.3845     -1637.2901     -1125.7827     -71.975174    
  39498500   269.37862     -351.57994     -272.64318     -351.57454      0              3924.2054      45.762345      20.047001      20.857         19134.165      3978.7866      3525.7308      4268.0989      962.66617     -652.95253     -507.90618    
  39499000   264.2172      -350.35697     -272.93268     -350.30568      0              3266.9362      45.857683      20.047001      20.857         19174.028      3250.6697      3961.2395      2588.8996     -607.63151     -620.17413     -584.45957    
  39499500   268.41453     -348.35497     -269.70072     -348.30611      0              8094.9164      45.713612      20.047001      20.857         19113.789      10787.074      7670.893       5826.782      -74.493547     -2353.0959      948.24194    
  39500000   267.93495     -351.55864     -273.04492     -351.52449      0              4030.1763      45.588623      20.047001      20.857         19061.529      3832.3106      3884.847       4373.3712      509.6842      -858.63893      269.2676     
  39500500   270.27646     -350.5384      -271.33855     -350.48241      0              6875.3961      45.587498      20.047001      20.857         19061.058      6021.2537      7323.6242      7281.3106      349.98717     -1342.5152     -962.49527    
  39501000   266.0226      -353.73292     -275.77958     -353.68581      0              4340.6412      45.927859      20.047001      20.857         19203.37       4272.7842      3879.5134      4869.626       1531.7007     -1229.4975      1085.6611    
  39501500   263.46742     -351.04475     -273.84017     -351.0217       0              5490.3466      45.782534      20.047001      20.857         19142.607      4567.0444      6598.8828      5305.1127     -1758.3773     -344.95324      1196.1815    
  39502000   270.89449     -353.12231     -273.74135     -353.08744      0              8972.9473      45.172911      20.047001      20.857         18887.711      9560.8793      7702.3789      9655.5836      994.84693      249.35162      185.60557    
  39502500   261.16606     -351.4893      -274.95909     -351.44029      0              5964.6856      45.212771      20.047001      20.857         18904.377      7561.0391      7058.2728      3274.745       657.00998     -1948.8198      1179.9133    
  39503000   263.89545     -350.38045     -273.05044     -350.39516      0              3048.034       45.848726      20.047001      20.857         19170.283      4691.1294     -56.549688      4509.5222     -510.76938     -1657.9469      132.65021    
  39503500   264.06895     -350.97009     -273.58924     -350.98717      0              5733.6895      45.978845      20.047001      20.857         19224.689      5757.7756      5221.4578      6221.835       305.41383     -633.56789      235.97505    
  39504000   262.53033     -348.47607     -271.54608     -348.41502      0              6343.4311      45.40296       20.047001      20.857         18983.899      8694.7878      7703.4789      2632.0266     -536.19838      530.993        403.4946     
  39504500   266.49629     -351.48908     -273.39694     -351.4623       0              4870.7734      45.338047      20.047001      20.857         18956.758      3572.7464      4128.7177      6910.8562     -1018.8998      1170.1437      2268.7616    
  39505000   265.22364     -349.33781     -271.6186      -349.31365      0              3266.7812      45.629601      20.047001      20.857         19078.663      2484.9745      3435.6756      3879.6934     -125.15646     -1049.5251      49.400853    
  39505500   259.94585     -352.00172     -275.82907     -351.98682      0              6511.9173      45.682731      20.047001      20.857         19100.877      7778.6845      5683.4623      6073.605       786.02298     -937.2736       912.44031    
  39506000   258.58798     -352.21287     -276.43812     -352.16483      0              3219.206       45.647473      20.047001      20.857         19086.135      5007.3972      798.2391       3851.9816     -107.04514     -1.0001732      864.94983    
  39506500   262.04735     -350.07243     -273.28397     -350.02983      0              6786.4312      45.410885      20.047001      20.857         18987.213      6422.6507      8879.9423      5056.7007      850.07224     -3032.8122      417.17345    
  39507000   269.71332     -349.94296     -270.90812     -349.90055      0              6553.8157      45.527746      20.047001      20.857         19036.075      7600.6752      5314.7957      6745.9761      2061.8442      813.02055     -2641.2683    
  39507500   272.80133     -351.025       -271.08528     -350.96871      0              2666.1144      45.855438      20.047001      20.857         19173.09       2261.0013      1898.7853      3838.5566     -590.3163      -255.81547      476.92539    
  39508000   271.23682     -352.80073     -273.31946     -352.73657      0              6542.7803      45.634349      20.047001      20.857         19080.648      8054.6984      5744.2536      5829.389      -399.21302      1407.3073     -541.87987    
  39508500   268.55499     -353.23474     -274.53933     -353.12672      0              7310.6789      45.493543      20.047001      20.857         19021.774      9838.4825      4969.8383      7123.7158     -235.23811      267.99953      1274.5287    
  39509000   264.61927     -348.87258     -271.33047     -348.84219      0              4101.5515      45.655762      20.047001      20.857         19089.601      3533.614       6467.7624      2303.2779     -309.52466      1232.5818     -415.37388    
  39509500   257.18423     -350.80727     -275.44386     -350.75584      0              5127.2454      45.558506      20.047001      20.857         19048.936      6469.6756      3657.2923      5254.7684      85.01985       1357.3236      850.89153    
  39510000   263.37963     -351.80061     -274.62175     -351.76077      0              6216.8476      45.375616      20.047001      20.857         18972.466      5923.5172      7731.1032      4995.9224     -274.71792     -492.12169      635.26707    
  39510500   265.35422     -351.0785      -273.32102     -351.01812      0              2499.026       45.55361       20.047001      20.857         19046.889      5104.259      -981.09846      3373.9173      434.85317      1482.28        442.60298    
  39511000   264.05261     -350.28077     -272.90471     -350.19948      0              5084.2311      45.835459      20.047001      20.857         19164.736      5651.2503      4960.5025      4640.9403     -2171.5419     -8.7520998      2710.1266    
  39511500   265.90341     -349.80981     -271.8914      -349.73637      0              4187.5422      45.52991       20.047001      20.857         19036.98       3566.5519      6204.0893      2791.9856      145.94882      1253.1757      62.144555    
  39512000   267.8537      -348.53938     -270.04948     -348.52743      0              5128.6222      45.224032      20.047001      20.857         18909.086      5356.6499      5608.9901      4420.2266      1616.4066      1888.1304     -405.66127    
  39512500   269.34038     -350.11051     -271.18496     -350.06663      0              7491.2375      45.429268      20.047001      20.857         18994.899      9509.0461      5907.5417      7057.1248     -1884.2281     -977.86853      1343.0858    
  39513000   258.91591     -350.15395     -274.28311     -350.0941       0              5556.5135      45.744312      20.047001      20.857         19126.625      7000.244       6782.7937      2886.5028      1018.5311      528.11423      767.82748    
  39513500   260.90666     -355.3458      -278.8916      -355.27979      0              6222.2975      45.592287      20.047001      20.857         19063.061      5912.6053      5079.4217      7674.8655      214.22646      610.32692      1058.2482    
  39514000   262.96044     -352.02116     -274.96513     -351.93949      0              6358.5341      45.460587      20.047001      20.857         19007.994      8274.2796      3770.9571      7030.3654      618.56251     -331.09619     -392.2777     
  39514500   269.47641     -352.04354     -273.07813     -352.03759      0              8303.5952      45.78494       20.047001      20.857         19143.613      7639.8344      9916.0794      7354.8717      665.71067     -45.196218      1022.1056    
  39515000   274.35064     -351.65381     -271.26009     -351.57111      0              6112.5462      45.69004       20.047001      20.857         19103.933      8028.3933      3428.8507      6880.3945     -897.35856      688.81927      976.54406    
  39515500   264.05977     -351.18093     -273.80277     -351.11831      0              6265.2587      45.546501      20.047001      20.857         19043.917      7672.5852      5442.4877      5680.7031      683.05316      264.50825      711.42289    
  39516000   270.22117     -354.03029     -274.84664     -353.98723      0              5118.219       45.609008      20.047001      20.857         19070.052      4483.212       4999.1379      5872.3071      1554.2577     -862.19601      294.22358    
  39516500   274.33796     -354.61387     -274.22386     -354.55895      0              5161.2252      45.611451      20.047001      20.857         19071.074      7487.5275      3621.962       4374.1861     -374.71429     -279.62416     -76.708907    
  39517000   265.54674     -349.49189     -271.678       -349.45396      0              4990.622       45.690872      20.047001      20.857         19104.281      7550.565       4128.7294      3292.5717      583.59184      536.12118     -120.48017    
  39517500   264.62241     -351.07812     -273.53509     -351.00347      0              6107.0784      45.85094       20.047001      20.857         19171.209      7625.9105      4150.7736      6544.551      -1583.6605      705.32343     -573.79807    
  39518000   272.47476     -352.60179     -272.75776     -352.5345       0              5621.3353      45.756218      20.047001      20.857         19131.604      6988.1758      5345.133       4530.6971      836.00177     -1606.4832      302.94308    
  39518500   270.04892     -352.52107     -273.38789     -352.43358      0              4317.043       45.584544      20.047001      20.857         19059.823      3312.4338      3947.5944      5691.1008      282.8199       650.18066      1461.157     
  39519000   270.55533     -351.41147     -272.1299      -351.39581      0              6005.5244      45.762276      20.047001      20.857         19134.137      6237.5219      5263.2625      6515.7888      1720.4555      982.96879     -292.2824     
  39519500   259.57037     -350.08894     -274.02632     -349.99804      0              4003.3272      45.990751      20.047001      20.857         19229.666      4359.2332      4678.4306      2972.318       78.41227      -1655.1126      138.13353    
  39520000   264.81904     -351.0486      -273.44795     -350.98921      0              4411.0022      45.874198      20.047001      20.857         19180.933      4673.1363      2700.7983      5859.072       1086.7568     -545.01573      344.39011    
  39520500   263.73151     -350.88425     -273.60228     -350.83219      0              5190.6534      45.544933      20.047001      20.857         19043.261      5118.3833      4769.9798      5683.5973     -2180.1389     -2180.1364     -1503.818     
[...]
  39964500   264.93216     -348.262       -270.6282      -348.29386      0              7383.7973      46.087033      20.047001      20.857         19269.924      8602.3807      7157.288       6391.7231      616.63952     -91.231973      1795.0083    
  39965000   272.48238     -350.57959     -270.73333     -350.60254      0              5572.1818      45.904656      20.047001      20.857         19193.669      3602.5938      8032.8274      5081.1241      434.29443      949.6504      -1931.1166    
  39965500   266.42178     -350.44389     -272.37358     -350.48157      0              5612.4296      45.523109      20.047001      20.857         19034.136      6001.9059      6451.8581      4383.5247     -238.14827      1406.9362      1809.2947    
  39966000   266.55256     -351.37162     -273.26299     -351.41269      0              5118.834       45.564779      20.047001      20.857         19051.559      3381.6557      5917.5649      6057.2814     -516.03981      1336.7757      41.469088    
  39966500   266.26899     -350.76635     -272.74082     -350.78762      0              3053.9913      45.999394      20.047001      20.857         19233.28       2933.3962      3511.8118      2716.766       1005.1929     -1640.1868      1507.7633    
  39967000   267.57435     -351.82286     -273.41481     -351.85139      0              5119.8722      45.824575      20.047001      20.857         19160.185      5620.4172      6130.1122      3609.0871     -1373.9663      2048.5923     -1303.2903    
  39967500   266.25237     -349.65206     -271.6314      -349.68379      0              5887.6547      45.704236      20.047001      20.857         19109.869      7288.6952      3256.8671      7117.4017      137.81217     -2984.0597     -2453.64      
  39968000   267.08588     -351.98992     -273.72501     -352.0314       0              5540.2404      45.690547      20.047001      20.857         19104.145      4836.4936      5634.9375      6149.29       -661.59075     -996.90937      829.95886    
  39968500   257.85119     -350.10019     -274.54135     -350.12585      0              5789.5501      45.759178      20.047001      20.857         19132.841      4408.4318      7128.3057      5831.9129     -1010.6235      385.98789     -276.55944    
  39969000   260.07173     -350.39378     -274.18425     -350.42393      0              5781.0851      45.858655      20.047001      20.857         19174.434      6333.675       4829.1173      6180.4629      451.80321      167.45345     -1140.9613    
  39969500   259.18187     -347.58161     -271.63283     -347.61203      0              5016.8415      45.914205      20.047001      20.857         19197.661      5325.4276      3690.5304      6034.5664      668.21994      763.68432      2398.6101    
  39970000   265.74456     -348.84785     -270.97599     -348.91225      0              4046.3981      45.668862      20.047001      20.857         19095.078      5568.7583      3255.9085      3314.5275     -1474.7081      47.451749     -578.81933    
  39970500   268.05864     -349.43121     -270.88125     -349.4673       0              4623.1785      45.428558      20.047001      20.857         18994.602      4676.085       5441.3538      3752.0967      1200.2592     -2193.9978      295.26224    
  39971000   266.4843      -346.26303     -268.1744      -346.27962      0              4859.2816      45.683194      20.047001      20.857         19101.071      4316.0923      5834.0232      4427.7292      1191.5885     -915.52744     -1537.5384    
  39971500   267.52471     -348.11976     -269.72626     -348.14623      0              6442.0794      45.834525      20.047001      20.857         19164.345      8908.8971      5768.0267      4649.3143      683.42297     -858.43103     -1612.8316    
  39972000   274.8583      -348.95319     -268.41071     -348.95085      0              4197.7793      45.612413      20.047001      20.857         19071.476      4056.3733      6108.622       2428.3425     -362.82549     -734.81925      68.735669    
  39972500   265.00027     -349.22889     -271.57513     -349.22328      0              5928.6689      45.439517      20.047001      20.857         18999.184      7235.4677      4436.7861      6113.7529     -607.09291      129.35333      993.12856    
  39973000   263.29903     -352.50881     -275.35357     -352.53336      0              6158.9119      45.564654      20.047001      20.857         19051.507      6684.4209      5571.8963      6220.4185     -1094.2828     -12.170907     -1128.1664    
  39973500   254.31728     -349.44311     -274.91982     -349.48194      0              5254.8239      45.532985      20.047001      20.857         19038.265      4824.9971      4297.9358      6641.5388     -570.98904     -469.26504     -908.57146    
  39974000   260.34133     -349.60242     -273.31388     -349.61849      0              6091.5022      45.444956      20.047001      20.857         19001.459      5260.1611      6002.8535      7011.492      -1210.7011     -635.34769      1550.2562    
  39974500   257.62565     -348.3431      -272.85034     -348.37035      0              5425.0955      45.502849      20.047001      20.857         19025.665      6634.906       4641.3099      4999.0706     -504.4145       1061.2732      311.3597     
  39975000   265.85014     -349.42489     -271.5221      -349.44554      0              7238.3226      45.586935      20.047001      20.857         19060.823      6888.0301      6098.0082      8728.9296      924.65884     -368.16549     -2093.2567    
  39975500   263.23411     -348.92409     -271.78788     -348.98029      0              3813.3776      45.408799      20.047001      20.857         18986.341      4145.3061      5045.3771      2249.4494      1894.9868      120.37519     -585.01856    
  39976000   266.62628     -346.94692     -268.81669     -346.98101      0              7514.3586      45.145381      20.047001      20.857         18876.2        9722.3522      5764.2437      7056.4798      551.79149      2696.6499     -274.56566    
  39976500   263.57179     -350.32381     -273.08864     -350.35435      0              4620.4656      45.630661      20.047001      20.857         19079.106      4409.0388      4156.9587      5295.3992      1008.6333     -721.39788     -165.47316    
  39977000   264.20384     -349.70905     -272.28868     -349.73328      0              4020.381       46.105025      20.047001      20.857         19277.447      5004.9706      3692.9223      3363.2501     -174.20235     -242.66095      373.60955    
  39977500   269.3338      -347.55754     -268.63392     -347.58959      0              6388.6303      45.615385      20.047001      20.857         19072.719      6198.2887      5331.711       7635.8911      418.49721     -901.156        566.59334    
  39978000   263.3147      -349.04952     -271.88969     -349.08073      0              4686.0102      45.489802      20.047001      20.857         19020.21       4383.7126      5789.7548      3884.5632      403.35245      43.858145      1120.8368    
  39978500   266.49133     -350.05886     -271.96817     -350.10872      0              2828.5094      45.588801      20.047001      20.857         19061.603      3469.6862      1019.2704      3996.5715     -383.84627     -2079.8432     -64.288162    
  39979000   266.53252     -351.86862     -273.76587     -351.90163      0              4921.8881      45.677658      20.047001      20.857         19098.756      6068.0449      3833.367       4864.2525     -672.26948      4.3515931     -502.98893    
  39979500   259.99183     -347.18576     -270.99964     -347.24943      0              3530.8487      45.801216      20.047001      20.857         19150.418      5180.9749      3153.8832      2257.6878     -1402.431      -1574.9006     -691.50419    
  39980000   265.27024     -349.0488      -271.31593     -349.07367      0              5769.1206      45.758281      20.047001      20.857         19132.466      6093.9013      5188.2575      6025.2031     -787.49519     -783.65306     -307.66525    
  39980500   265.47931     -349.44272     -271.64858     -349.47904      0              6685.4508      45.382533      20.047001      20.857         18975.358      8653.3696      6997.7292      4405.2536     -160.59631     -1279.7742     -1166.6717    
  39981000   266.5602      -348.107       -269.99613     -348.13827      0              7525.7059      45.322744      20.047001      20.857         18950.359      9303.8121      7198.9928      6074.3129      890.19987     -897.72506     -201.71608    
  39981500   263.55633     -350.62481     -273.39417     -350.66347      0              5652.5454      45.512727      20.047001      20.857         19029.795      4840.5636      4532.9601      7584.1124      364.12228     -1078.5489     -2886.984     
  39982000   265.9585      -350.60669     -272.67214     -350.62422      0              2633.856       45.731448      20.047001      20.857         19121.247      5588.3514      708.15834      1605.0582      413.25393     -239.70239      1275.7082    
  39982500   270.45447     -350.78804     -271.53602     -350.81041      0              8470.2274      45.4585        20.047001      20.857         19007.121      8949.0368      7790.0928      8671.5525     -617.65622      199.41748     -225.2538     
  39983000   273.12342     -352.32709     -272.29299     -352.35536      0              6296.1534      45.281652      20.047001      20.857         18933.178      7422.0415      6248.4625      5217.9563      894.60222      1000.9303      542.84804    
  39983500   264.31598     -349.5078      -272.05456     -349.55756      0              2973.1341      45.414217      20.047001      20.857         18988.606      4858.0606      1852.8079      2208.5337     -796.2704      -1876.0898     -1834.0512    
  39984000   265.35173     -350.09906     -272.34231     -350.11894      0              4525.8402      45.552101      20.047001      20.857         19046.258      2333.1542      6126.0827      5118.2838      1242.108       767.75795      403.65779    
  39984500   257.41975     -348.86712     -273.4347      -348.91626      0              7109.426       45.481475      20.047001      20.857         19016.728      10331.303      5754.9666      5242.0084      346.64597     -770.28956     -808.55411    
  39985000   255.76127     -347.11541     -272.16899     -347.12945      0              5894.4222      45.361214      20.047001      20.857         18966.444      4998.9229      4507.737       8176.6068      1596.0098      596.18165     -173.48865    
  39985500   261.64112     -349.47747     -272.80806     -349.51008      0              5391.3462      45.443832      20.047001      20.857         19000.989      5173.3843      5412.3085      5588.3458      804.28451      1772.7766     -259.07215    
  39986000   269.00144     -350.38768     -271.56145     -350.42657      0              5370.5902      45.739066      20.047001      20.857         19124.432      5760.1109      5367.3526      4984.307      -826.55514     -432.50174     -406.39987    
  39986500   269.50158     -350.32839     -271.3556      -350.35338      0              4891.927       45.785021      20.047001      20.857         19143.647      6000.5983      2300.8793      6374.3034      98.888456     -822.78135      679.79165    
  39987000   262.97567     -348.79586     -271.73537     -348.82802      0              7537.5209      45.485787      20.047001      20.857         19018.531      8942.1813      7708.1851      5962.1965     -19.263047     -2041.3536     -249.77264    
  39987500   266.74226     -348.63092     -270.4667      -348.66413      0              6887.0013      45.202154      20.047001      20.857         18899.938      5441.9129      8154.3388      7064.7524      898.76792     -565.80703     -336.46641    
  39988000   268.32846     -348.69616     -270.06713     -348.71575      0              5730.6524      45.239073      20.047001      20.857         18915.375      6694.0282      4599.0561      5898.8728     -1170.4657      459.10585      923.71476    
  39988500   267.64772     -348.66226     -270.23271     -348.69469      0              5850.8986      45.687468      20.047001      20.857         19102.858      6401.7921      7780.8739      3370.0298      1053.6353     -1057.6327     -614.62743    
  39989000   268.47187     -350.69629     -272.02524     -350.71905      0              3710.5376      45.926402      20.047001      20.857         19202.761      4424.1341      3196.4553      3511.0235      814.60385     -1116.5762     -756.46117    
  39989500   274.45502     -350.70501     -270.2807      -350.7204       0              4897.2053      45.41191       20.047001      20.857         18987.642      7363.7405      3389.7915      3938.084      -312.51305      595.87426      6.7436796    
  39990000   262.81023     -349.32524     -272.31323     -349.36215      0              4917.6446      45.225211      20.047001      20.857         18909.579      5211.6034      4703.3914      4837.939      -183.72868      1279.4622     -11.868508    
  39990500   268.16845     -351.89554     -273.3134      -351.92131      0              5397.0252      45.563969      20.047001      20.857         19051.22       5236.5684      4706.8555      6247.6516     -474.09639      468.38533      777.5039     
  39991000   262.86064     -351.80701     -274.78023     -351.83044      0              5548.8991      45.642183      20.047001      20.857         19083.923      8233.9346      4176.3425      4236.4201      485.66782      199.56656     -25.370019    
  39991500   264.59422     -351.12707     -273.5923      -351.14085      0              6666.3126      45.286108      20.047001      20.857         18935.041      6192.4809      6643.1508      7163.3062     -219.89151     -353.99677      27.593202    
  39992000   261.99174     -349.99022     -273.21806     -349.94866      0              5189.0109      45.287687      20.047001      20.857         18935.701      7130.304       5754.4748      2682.254       208.69645     -254.95575     -1065.5107    
  39992500   255.7037      -351.6043      -276.67474     -351.61914      0              5485.7474      45.568418      20.047001      20.857         19053.08       5177.9624      5765.251       5514.0288      375.08421     -1255.3323     -117.2675     
  39993000   268.66965     -349.80507     -271.07606     -349.8257       0              6970.6611      45.475635      20.047001      20.857         19014.286      8710.2495      7180.7493      5020.9845     -623.11573      667.32906     -382.40852    
  39993500   262.75091     -347.8904      -270.89577     -347.87799      0              4987.6278      45.594042      20.047001      20.857         19063.795      7257.1061      3627.8499      4077.9273     -129.26217     -1678.5308     -600.49512    
  39994000   259.07779     -346.07499     -270.15672     -346.10974      0              5605.6492      45.596584      20.047001      20.857         19064.857      3890.39        7648.1071      5278.4506      40.865885     -1049.3871      380.64858    
  39994500   262.63489     -350.56327     -273.60265     -350.60514      0              5560.1846      45.404912      20.047001      20.857         18984.716      8280.6311      3900.771       4499.1518     -1094.5101     -62.534246     -583.6356     
  39995000   257.12571     -349.58425     -274.23799     -349.59408      0              4450.0436      45.330948      20.047001      20.857         18953.79       6808.7634      3352.2537      3189.1136     -481.18111     -150.74704     -612.26236    
  39995500   254.86473     -348.75796     -274.07424     -348.7833       0              4583.7887      45.339075      20.047001      20.857         18957.187      3774.4552      6695.671       3281.2399     -169.57318      3443.42        408.65727    
  39996000   268.80974     -348.66822     -269.89817     -348.70866      0              6138.607       45.517532      20.047001      20.857         19031.804      3695.9463      7747.1683      6972.7065     -766.60671     -1831.4647     -319.9381     
  39996500   265.88358     -348.16928     -270.25668     -348.1836       0              5731.962       45.617196      20.047001      20.857         19073.476      6872.2859      4952.5539      5371.0463     -627.91052      2424.01       -134.47633    
  39997000   257.54595     -349.67249     -274.2031      -349.69276      0              7109.5193      45.493498      20.047001      20.857         19021.755      6676.7131      7667.064       6984.7808     -1151.1736     -292.96956     -429.84597    
  39997500   255.0763      -349.94207     -275.19636     -349.96138      0              4761.5505      45.179625      20.047001      20.857         18890.518      5764.8766      5432.2217      3087.5532      101.92933      2133.9376      1613.5972    
  39998000   261.09953     -350.29157     -273.78086     -350.32503      0              4235.7294      45.432519      20.047001      20.857         18996.259      4738.9291      4827.6488      3140.6102     -1360.9663     -1026.4802      1269.0032    
  39998500   262.02097     -349.93938     -273.15866     -349.96177      0              3806.4766      45.791956      20.047001      20.857         19146.546      4346.5558      2359.8897      4712.9844      2310.2487     -1284.7347     -553.52029    
  39999000   268.22073     -347.93403     -269.33658     -347.95887      0              5653.4259      45.416089      20.047001      20.857         18989.389      5635.8833      5195.179       6129.2154      488.74045      1215.882       2701.954     
  39999500   266.98919     -349.59782     -271.36125     -349.61502      0              6491.3206      45.200149      20.047001      20.857         18899.1        8139.0772      4371.4396      6963.445       1557.646      -550.36704     -889.16179    
  40000000   267.05726     -351.94775     -273.69123     -351.96266      0              4861.941       45.647312      20.047001      20.857         19086.068      4757.9651      4705.8661      5121.9917      1063.152      -306.05475     -1234.5928    
Loop time of 14530 on 4 procs for 625500 steps with 2268 atoms

Performance: 1.860 ns/day, 12.905 hours/ns, 43.049 timesteps/s
947.1% CPU use with 4 MPI tasks x no OpenMP threads

MPI task timing breakdown:
Section |  min time  |  avg time  |  max time  |%varavg| %total
---------------------------------------------------------------
Pair    | 7874.5     | 7914.6     | 7970.5     |  46.0 | 54.47
Bond    | 0.072969   | 0.07546    | 0.079246   |   0.9 |  0.00
Neigh   | 200.63     | 208.38     | 212.69     |  31.9 |  1.43
Comm    | 791.52     | 852.39     | 902.77     | 168.3 |  5.87
Output  | 585.35     | 585.35     | 585.36     |   0.0 |  4.03
Modify  | 4955       | 4967.4     | 4976.4     |  11.2 | 34.19
Other   |            | 1.825      |            |       |  0.01

Nlocal:            567 ave         581 max         548 min
Histogram: 1 0 0 0 0 0 2 0 0 1
Nghost:         3749.5 ave        3837 max        3711 min
Histogram: 2 1 0 0 0 0 0 0 0 1
Neighs:              0 ave           0 max           0 min
Histogram: 4 0 0 0 0 0 0 0 0 0
FullNghs:       144274 ave      147058 max      138825 min
Histogram: 1 0 0 0 0 0 0 1 1 1

Total # of neighbors = 577096
Ave neighs/atom = 254.4515
Ave special neighs/atom = 0
Neighbor list builds = 62550
Dangerous builds not checked

unfix		4
unfix		3
unfix		1

write_data	data.final.${pid}
write_data	data.final.0
System init for write_data ...
Generated 0 of 1 mixed pair_coeff terms from geometric mixing rule
write_restart	restart.lmp.${pid}
write_restart	restart.lmp.0
System init for write_restart ...
Generated 0 of 1 mixed pair_coeff terms from geometric mixing rule
Total wall time: 4:02:26
