LAMMPS (23 Jun 2022)
echo both

include		in.partitions
variable        pid world 0
include		in.temp
variable	temperature equal 265.0
variable        tempDamp equal 0.100 # this is 0.1 ps
include		in.pressure
variable        pressure equal 6079.5
variable        pressureDamp equal 1.0 #this is 1ps
include		in.seed
variable        seed world 745823

units           metal
atom_style	full
read_restart	restart.lmp.${pid}
read_restart	restart.lmp.0
Reading restart file ...
  restart file = 23 Jun 2022, LAMMPS = 23 Jun 2022
  restoring atom style full from restart
  orthogonal box = (0.95221606 0 0) to (46.498483 20.047001 20.857)
  4 by 1 by 1 MPI processor grid
Summary of lammps deepmd module ...
  >>> Info of deepmd-kit:
  installed to:       /u/sigbjobo/software/DEEPMD_FROM_SOURCE/deepmd-kit/install
  source:             v2.1.3
  source branch:       master
  source commit:      5a32c49
  source commit at:   2022-07-01 09:52:58 +0800
  surpport model ver.:1.1 
  build float prec:   double
  build with tf inc:  /u/sigbjobo/software/DEEPMD_FROM_SOURCE/tensorflow/install/include;/u/sigbjobo/software/DEEPMD_FROM_SOURCE/tensorflow/install/include
  build with tf lib:  /u/sigbjobo/software/DEEPMD_FROM_SOURCE/tensorflow/install/lib/libtensorflow_cc.so;/u/sigbjobo/software/DEEPMD_FROM_SOURCE/tensorflow/install/lib/libtensorflow_framework.so
  set tf intra_op_parallelism_threads: 0
  set tf inter_op_parallelism_threads: 0
  >>> Info of lammps module:
  use deepmd-kit at:  /u/sigbjobo/software/DEEPMD_FROM_SOURCE/deepmd-kit/install
  source:             v2.1.3
  source branch:      master
  source commit:      5a32c49
  source commit at:   2022-07-01 09:52:58 +0800
  build float prec:   double
  build with tf inc:  /u/sigbjobo/software/DEEPMD_FROM_SOURCE/tensorflow/install/include;/u/sigbjobo/software/DEEPMD_FROM_SOURCE/tensorflow/install/include
  build with tf lib:  /u/sigbjobo/software/DEEPMD_FROM_SOURCE/tensorflow/install/lib/libtensorflow_cc.so;/u/sigbjobo/software/DEEPMD_FROM_SOURCE/tensorflow/install/lib/libtensorflow_framework.so
  restoring pair style deepmd from restart
  2268 atoms
Finding 1-2 1-3 1-4 neighbors ...
  special bond factors lj:    0        0        0       
  special bond factors coul:  0        0        0       
     0 = max # of 1-2 neighbors
     0 = max # of 1-3 neighbors
     0 = max # of 1-4 neighbors
     1 = max # of special neighbors
  special bonds CPU = 0.000 seconds
  read_restart CPU = 0.048 seconds
include 	in.setup
variable	out_freq equal 500
variable	out_freq2 equal 1000
variable	out_freq3 equal 5000

timestep        0.0005

neigh_modify    delay 7 every 1

include         in.deepmd
# This is deepMD model

# create groups ###
#group ox type 2
#group hy type 1

mass 2 15.999
mass 1 1.008

pair_style      deepmd ../graph.pb
pair_coeff      * *

bond_style      none
angle_style     none
dihedral_style  none
improper_style  none
neigh_modify exclude none


neighbor        2.0 bin
neigh_modify    every 10 delay 0 check no

thermo          ${out_freq}
thermo          500
thermo_style 	custom step temp pe etotal epair emol press lx ly lz vol pxx pyy pzz pxy pxz pyz
#thermo_modify	flush yes
restart 	${out_freq} restart.lmp.${pid} restart2.lmp.${pid}
restart 	500 restart.lmp.${pid} restart2.lmp.${pid}
restart 	500 restart.lmp.0 restart2.lmp.${pid}
restart 	500 restart.lmp.0 restart2.lmp.0

include		in.dump
dump            myDump all atom ${out_freq3} dump.water.${pid}
dump            myDump all atom 5000 dump.water.${pid}
dump            myDump all atom 5000 dump.water.0
dump            myDump2 all dcd ${out_freq2} dump.dcd.${pid}
dump            myDump2 all dcd 1000 dump.dcd.${pid}
dump            myDump2 all dcd 1000 dump.dcd.0
dump_modify     myDump append yes
dump_modify     myDump2 append yes


timer           timeout 23:50:00 every 1000
New timer settings: style=normal  mode=nosync  timeout=23:50:00

fix             1 all plumed plumedfile plumed.dat outfile plumed.out
fix             3 all nph x ${pressure} ${pressure} ${pressureDamp}
fix             3 all nph x 6079.5 ${pressure} ${pressureDamp}
fix             3 all nph x 6079.5 6079.5 ${pressureDamp}
fix             3 all nph x 6079.5 6079.5 1
fix             4 all temp/csvr ${temperature} ${temperature} ${tempDamp} ${seed}
fix             4 all temp/csvr 265 ${temperature} ${tempDamp} ${seed}
fix             4 all temp/csvr 265 265 ${tempDamp} ${seed}
fix             4 all temp/csvr 265 265 0.1 ${seed}
fix             4 all temp/csvr 265 265 0.1 745823

run             40000000 upto

CITE-CITE-CITE-CITE-CITE-CITE-CITE-CITE-CITE-CITE-CITE-CITE-CITE

Your simulation uses code contributions which should be cited:

- USER-DEEPMD package:

@article{Wang_ComputPhysCommun_2018_v228_p178,
  author = {Wang, Han and Zhang, Linfeng and Han, Jiequn and E, Weinan},
  doi = {10.1016/j.cpc.2018.03.016},
  url = {https://doi.org/10.1016/j.cpc.2018.03.016},
  year = 2018,
  month = {jul},
  publisher = {Elsevier {BV}},
  volume = 228,
  journal = {Comput. Phys. Commun.},
  title = {{DeePMD-kit: A deep learning package for many-body potential energy representation and molecular dynamics}},
  pages = {178--184}
}

CITE-CITE-CITE-CITE-CITE-CITE-CITE-CITE-CITE-CITE-CITE-CITE-CITE

Generated 0 of 1 mixed pair_coeff terms from geometric mixing rule
Neighbor list info ...
  update every 10 steps, delay 0 steps, check no
  max neighbors/atom: 2000, page size: 100000
  master list distance cutoff = 8
  ghost atom cutoff = 8
  binsize = 4, bins = 12 6 6
  1 neighbor lists, perpetual/occasional/extra = 1 0 0
  (1) pair deepmd, perpetual
      attributes: full, newton on
      pair build: full/bin
      stencil: full/bin/3d
      bin: standard
Per MPI rank memory allocation (min/avg/max) = 6.192 | 6.193 | 6.195 Mbytes
   Step          Temp          PotEng         TotEng         E_pair         E_mol          Press            Lx             Ly             Lz           Volume          Pxx            Pyy            Pzz            Pxy            Pxz            Pyz      
   3821000   257.25972     -349.79019     -274.40467     -349.79019      0              6573.9626      45.546267      20.047001      20.857         19043.819      9204.8559      5103.8542      5413.1778      1180.3311     -2304.1291     -391.4409     
   3821500   265.43199     -350.27021     -272.48995     -350.26478      0              7773.275       45.756728      20.047001      20.857         19131.817      8033.5536      6611.2044      8675.067       487.1789      -830.17364     -382.89622    
   3822000   265.17984     -351.15163     -273.44525     -351.16849      0              6623.6762      45.886376      20.047001      20.857         19186.025      8495.7068      4460.7231      6914.5988     -1478.1431     -168.89318      655.67158    
   3822500   260.86367     -350.06503     -273.62343     -350.05854      0              5621.0222      45.865443      20.047001      20.857         19177.273      6293.4192      5742.1382      4827.5092      329.37734     -467.48323      470.06922    
   3823000   270.65361     -350.44107     -271.1307      -350.43984      0              4073.1931      45.64212       20.047001      20.857         19083.897      3892.8326      4220.6325      4106.1144     -589.48607      1324.9843     -441.36347    
   3823500   268.98132     -349.38386     -270.56352     -349.39118      0              6481.4072      45.675308      20.047001      20.857         19097.774      7294.1371      7192.8746      4957.2099      976.34154     -399.85632     -704.86599    
   3824000   268.92633     -350.23571     -271.43149     -350.21298      0              3906.4249      45.772519      20.047001      20.857         19138.419      4472.9776      3673.2315      3573.0656     -506.65451      1649.0288     -1041.0929    
   3824500   266.57008     -352.58842     -274.47465     -352.58899      0              5155.6108      45.832154      20.047001      20.857         19163.354      7138.7428      3981.7781      4346.3116     -1485.4413      233.02297     -760.782      
   3825000   263.98374     -352.45599     -275.10011     -352.44492      0              5007.1873      45.660983      20.047001      20.857         19091.784      5743.4846      5146.518       4131.5592     -594.2874       1189.8861     -195.98686    
   3825500   257.9621      -349.39038     -273.79904     -349.38294      0              4285.2235      45.674137      20.047001      20.857         19097.284      5910.4694      1286.9502      5658.2508      118.60065      1144.3934     -433.6441     
   3826000   261.68736     -349.70469     -273.02172     -349.69622      0              3505.8909      45.743862      20.047001      20.857         19126.437      3115.4758      4140.9161      3261.2808     -69.401222      1243.9998      282.22283    
   3826500   264.25046     -352.00456     -274.57052     -352.00066      0              6707.3047      45.943554      20.047001      20.857         19209.932      6942.8483      5331.9468      7847.1189     -396.8309      -942.08174      591.68027    
   3827000   265.19608     -351.30913     -273.59799     -351.32955      0              4648.6807      45.79398       20.047001      20.857         19147.393      6536.5742      3023.4309      4386.037       90.59494       70.063621     -1592.4292    
   3827500   262.73485     -352.19236     -275.20244     -352.21213      0              6580.2713      45.489088      20.047001      20.857         19019.911      8069.6993      6668.1787      5002.936      -2200.4469     -1307.0954      619.03028    
   3828000   262.61936     -349.95581     -272.99974     -349.95008      0              5010.2801      45.967389      20.047001      20.857         19219.898      5744.1167      3421.5654      5865.1583      213.2251      -527.02571     -1017.2463    
   3828500   260.80544     -348.02909     -271.60456     -348.00587      0              3104.1182      46.109536      20.047001      20.857         19279.333      4385.5657      2803.6157      2123.1731     -1516.0607     -287.13011      1044.6261    
   3829000   262.3373      -349.95365     -273.08023     -349.95009      0              3797.3633      45.719951      20.047001      20.857         19116.44       5663.3585      2952.0081      2776.7233     -702.81915      899.37384      37.189064    
   3829500   258.54805     -349.46738     -273.70434     -349.47647      0              5195.1445      45.67258       20.047001      20.857         19096.633      7937.4592      4256.1353      3391.839      -681.14301      986.2727       929.00271    
   3830000   261.26979     -346.30287     -269.74226     -346.30527      0              5190.8146      45.937669      20.047001      20.857         19207.472      8516.9799      3089.5755      3965.8884      665.96349      25.723452     -1073.0899    
   3830500   265.37494     -348.71233     -270.94878     -348.70584      0              2818.2627      46.070785      20.047001      20.857         19263.131      1291.4465      2671.2881      4492.0536      1367.4627      59.488907      1916.0298    
   3831000   267.75139     -348.19277     -269.73284     -348.21412      0              4925.812       45.90034       20.047001      20.857         19191.864      7405.0745      3908.3689      3463.9926     -932.62725     -1193.5877     -396.68878    
   3831500   272.39795     -346.1079      -266.28638     -346.14083      0              5745.1689      45.858681      20.047001      20.857         19174.446      4550.0397      6567.077       6118.3901      945.5607       150.31353      703.26725    
   3832000   263.16983     -347.20674     -270.08936     -347.19765      0              4737.9247      45.917261      20.047001      20.857         19198.939      4447.7723      5757.3115      4008.6904      1529.7941     -337.74435     -1144.5311    
   3832500   263.02628     -349.32529     -272.24998     -349.32387      0              5629.7071      45.801845      20.047001      20.857         19150.681      6409.0969      5717.7588      4762.2657     -1014.9903     -488.29156     -2707.1699    
   3833000   264.11316     -347.98398     -270.59018     -348.00084      0              5102.7419      45.771223      20.047001      20.857         19137.878      5428.703       1852.6047      8026.918      -1061.5199     -41.693206     -1451.9491    
   3833500   269.59187     -349.63997     -270.64072     -349.66847      0              4303.1137      46.087241      20.047001      20.857         19270.011      3324.7299      3827.7337      5756.8775      1018.5965     -645.42056     -176.89481    
   3834000   267.57908     -347.95424     -269.54481     -347.9757       0              5072.2562      46.050735      20.047001      20.857         19254.747      5330.7851      5991.8134      3894.1702      190.1924       1208.7571     -548.37868    
   3834500   259.46812     -349.10102     -273.06836     -349.09532      0              3945.7159      45.661866      20.047001      20.857         19092.153      5568.175       2393.9264      3875.0462      1540.5566      1193.232      -47.827369    
   3835000   261.22666     -351.40717     -274.85921     -351.37974      0              7140.5912      45.793446      20.047001      20.857         19147.169      7021.5282      7460.9592      6939.2862      531.25888      2533.3384     -2703.3498    
   3835500   262.01664     -353.09926     -276.31981     -353.07432      0              5020.2436      45.923171      20.047001      20.857         19201.41       4075.0195      7315.4207      3670.2907      1268.5121     -236.03144     -470.42546    
   3836000   267.14242     -351.08615     -272.80467     -351.09342      0              7424.326       45.76532       20.047001      20.857         19135.409      8881.6586      5296.2627      8095.0566      486.25641      1371.0712     -408.12501    
   3836500   261.28795     -350.25112     -273.68519     -350.24673      0              6503.416       45.705133      20.047001      20.857         19110.244      6681.1991      6423.0237      6406.025      -827.42304     -2229.6056     -865.21307    
   3837000   264.44535     -349.69431     -272.20316     -349.69817      0              4842.2697      45.728327      20.047001      20.857         19119.942      5807.7266      5248.9503      3470.1321      508.32292      1166.6462     -792.33436    
   3837500   268.13308     -350.53688     -271.9651      -350.55013      0              5983.9         45.541325      20.047001      20.857         19041.753      6071.434       6748.2952      5131.9706     -370.04956     -630.88256     -440.19109    
   3838000   268.19117     -351.45413     -272.86534     -351.46368      0              6275.798       45.541062      20.047001      20.857         19041.642      6842.4257      7201.801       4783.1674      83.192782     -185.44936      703.39783    
   3838500   260.50025     -349.47191     -273.13681     -349.47178      0              7409.6893      45.779524      20.047001      20.857         19141.348      6903.9567      8863.8402      6461.2709      710.56706      218.32255      832.97309    
   3839000   257.82207     -351.30731     -275.757       -351.27669      0              5061.264       45.70824       20.047001      20.857         19111.543      6199.0137      5327.7757      3657.0026      125.49962     -878.10109     -2171.2479    
   3839500   263.91198     -351.61558     -274.28072     -351.6125       0              5812.5252      45.330049      20.047001      20.857         18953.414      7287.4027      6002.4149      4147.7579     -673.82957     -709.64353      134.35891    
   3840000   262.24195     -350.97415     -274.12866     -350.98761      0              5567.1386      45.354298      20.047001      20.857         18963.553      7071.843       5256.9062      4372.6666      297.72867     -1340.4421      776.81996    
   3840500   258.6458      -350.18221     -274.39051     -350.18227      0              5418.2415      45.639265      20.047001      20.857         19082.703      6841.0507      5204.3626      4209.3112     -521.8157       184.97126     -440.56617    
   3841000   257.75234     -351.16283     -275.63295     -351.19264      0              5732.9131      45.686447      20.047001      20.857         19102.431      6031.3612      5134.5668      6032.8111      724.36466     -388.47087      1391.8328    
   3841500   265.00048     -352.7825      -275.12868     -352.79292      0              7114.5794      45.614469      20.047001      20.857         19072.335      7786.6704      4747.7976      8809.2703     -422.07422     -68.82407      -506.70121    
   3842000   258.18258     -352.13679     -276.48084     -352.15487      0              4233.0395      45.592747      20.047001      20.857         19063.253      5592.237       3911.0481      3195.8335      725.08754      770.57084      289.31365    
   3842500   258.72901     -353.44099     -277.62492     -353.44308      0              5266.0489      45.548966      20.047001      20.857         19044.947      6731.7213      6095.4958      2970.9295     -152.19916      614.67691      1497.7595    
   3843000   258.00263     -350.10444     -274.50122     -350.11785      0              3596.0436      45.861922      20.047001      20.857         19175.801      4683.7893      3935.3847      2168.9567     -905.03545      382.37619     -207.30847    
   3843500   265.4867      -351.91613     -274.11983     -351.93054      0              4836.014       45.778709      20.047001      20.857         19141.008      5288.5145      6337.5548      2881.9726     -419.4905       1451.313      -1404.6299    
   3844000   256.25926     -351.6691      -276.57675     -351.6642       0              4610.7623      45.759566      20.047001      20.857         19133.004      5292.4339      4523.9233      4015.9298     -268.26156     -1371.6791      1630.1685    
   3844500   263.74205     -351.75269     -274.46763     -351.76747      0              4055.3168      45.780255      20.047001      20.857         19141.654      5357.902       2068.9362      4739.1122     -466.95459     -940.14293      1935.9268    
   3845000   263.95796     -349.53347     -272.18514     -349.53145      0              4567.4781      45.791545      20.047001      20.857         19146.375      4429.7352      4049.2681      5223.4311     -152.86044      590.77911      601.49566    
   3845500   263.34256     -351.00839     -273.8404      -350.99729      0              4759.0549      45.703246      20.047001      20.857         19109.455      6363.5545      3619.8363      4293.7739     -865.0858       3075.0526     -787.79901    
   3846000   269.33564     -348.72529     -269.80112     -348.70659      0              6630.8523      45.574603      20.047001      20.857         19055.667      7451.2443      6961.4827      5479.8298     -1158.7628     -727.89067      1224.1065    
   3846500   262.88332     -350.04286     -273.00944     -349.99765      0              1911.6406      45.707131      20.047001      20.857         19111.079      1634.2244      4228.6204     -127.92279     -744.55578     -412.43928      236.49703    
   3847000   268.91208     -348.0392      -269.23915     -348.00088      0              2356.2942      45.695339      20.047001      20.857         19106.149      4078.5919      1619.4143      1370.8766     -988.09622      1453.5189     -942.77591    
   3847500   257.29487     -349.8601      -274.46428     -349.85751      0              6136.774       45.749753      20.047001      20.857         19128.9        8752.1062      6552.9573      3105.2584      1415.2386     -995.29308      1400.993     
   3848000   272.47776     -351.71091     -271.86601     -351.64798      0              2756.5698      45.758684      20.047001      20.857         19132.635      2994.2142      2322.5438      2952.9515     -1167.6717     -804.66879      885.76735    
   3848500   268.92779     -351.38337     -272.57872     -351.35901      0              4479.728       45.741074      20.047001      20.857         19125.272      6698.113       2182.9217      4558.1492     -470.29505      1077.3439      1041.7683    
   3849000   266.00107     -352.57834     -274.63131     -352.53047      0              6714.6321      45.884782      20.047001      20.857         19185.359      7571.3316      6775.0105      5797.5541      667.5159      -645.00533     -1803.1558    
   3849500   266.39945     -351.24454     -273.18078     -351.2229       0              5189.5305      45.919768      20.047001      20.857         19199.987      5047.8169      4479.0038      6041.7708     -140.34767     -78.704678     -232.39148    
   3850000   255.59576     -350.83653     -275.93861     -350.8362       0              6509.043       45.718057      20.047001      20.857         19115.648      7191.6959      6047.0877      6288.3454     -963.15725      288.71529      607.21049    
   3850500   264.28555     -349.94043     -272.49611     -349.92404      0              6820.0642      45.69735       20.047001      20.857         19106.99       10776.892      5214.8532      4468.4479     -35.602585     -96.998037     -1595.3624    
   3851000   278.73286     -350.02351     -268.34565     -350.01246      0              3157.8666      45.911148      20.047001      20.857         19196.383      5485.3539      1640.5201      2347.726      -978.95753      1644.0442      511.87182    
   3851500   267.12099     -350.5397      -272.2645      -350.53719      0              2523.2434      46.192002      20.047001      20.857         19313.814      1085.1109      3709.1855      2775.4337      341.7791       1221.416       321.58472    
   3852000   271.03089     -348.9737      -269.55278     -348.9706       0              4013.055       45.778259      20.047001      20.857         19140.819      3694.0301      4396.0692      3949.0657     -1530.1749      687.28032      350.15299    
   3852500   265.20134     -349.60592     -271.89325     -349.59683      0              7884.0512      45.281081      20.047001      20.857         18932.939      8647.1846      7012.3525      7992.6166      11.296804      299.19451     -1150.9752    
   3853000   269.0879      -352.83749     -273.98593     -352.81659      0              4616.3924      45.588271      20.047001      20.857         19061.381      6852.9975      2267.6862      4728.4935     -659.51014     -1376.7934      103.79368    
   3853500   268.08372     -350.45957     -271.90226     -350.46541      0              2373.6906      46.03057       20.047001      20.857         19246.316      3432.7118      2426.314       1262.046      -1324.8006      62.5363        540.64174    
   3854000   269.58433     -350.42414     -271.4271      -350.43749      0              3747.4161      46.006658      20.047001      20.857         19236.318      3742.2663      3282.2814      4217.7007     -32.041042      2603.0812     -303.23001    
   3854500   263.78038     -351.76181     -274.46552     -351.76686      0              6477.1901      45.718742      20.047001      20.857         19115.934      8648.5735      3521.6192      7261.3777      390.55314     -814.03192      204.46397    
   3855000   262.79483     -353.09037     -276.08288     -353.10804      0              3341.2085      45.770593      20.047001      20.857         19137.614      4421.5268      1833.8442      3768.2544     -727.59857      394.34873     -2074.5111    
   3855500   258.36409     -351.55654     -275.8474      -351.57487      0              5311.1116      45.810053      20.047001      20.857         19154.113      7184.6461      4746.6318      4002.057      -261.793       -901.7696       955.49764    
   3856000   261.07896     -351.80467     -275.29998     -351.80565      0              4544.4288      45.931604      20.047001      20.857         19204.936      5238.9832      5308.5035      3085.7995      260.44879      227.96572     -29.61928     
   3856500   260.19036     -349.68332     -273.43902     -349.70077      0              3789.5161      45.94053       20.047001      20.857         19208.668      4943.5225      2745.6908      3679.3352     -1160.023       373.14933      13.3506      
   3857000   270.27477     -353.20654     -274.00718     -353.20373      0              5644.0989      45.866361      20.047001      20.857         19177.657      7484.6685      4153.6604      5293.9678     -521.03672      804.13584     -147.80909    
   3857500   262.85873     -351.35327     -274.32705     -351.33376      0              4684.4728      45.876685      20.047001      20.857         19181.973      6322.0509      5537.0298      2194.3375      122.67174      199.75512      390.07061    
   3858000   259.01561     -350.24189     -274.34183     -350.22252      0              6485.4558      45.83525       20.047001      20.857         19164.649      9494.235       5443.3497      4518.7826     -491.23084     -662.67771     -231.30011    
   3858500   257.56885     -349.84393     -274.36782     -349.86335      0              4846.7015      45.942427      20.047001      20.857         19209.461      5563.8406      4659.1735      4317.0904      1938.9116     -96.110294      1086.5619    
   3859000   271.47181     -351.18325     -271.63312     -351.18745      0              4588.0128      45.98189       20.047001      20.857         19225.961      4318.4606      5911.7996      3533.778       405.00333     -2026.1977     -345.12908    
   3859500   265.33061     -350.23498     -272.48442     -350.27368      0              5229.5639      45.803485      20.047001      20.857         19151.367      4727.1037      6752.0513      4209.5366      580.09719     -510.9367       435.04116    
   3860000   266.29086     -351.78814     -273.7562      -351.76168      0              4956.48        45.626019      20.047001      20.857         19077.165      4930.416       5549.0607      4389.9633      48.720762     -1066.7208     -732.02822    
   3860500   271.87336     -350.55549     -270.88769     -350.50668      0              5568.8201      45.612131      20.047001      20.857         19071.358      6749.4404      4288.741       5668.2788      357.45656     -1183.7987     -172.34831    
   3861000   265.27565     -352.1388      -274.40435     -352.12083      0              5737.4399      45.692067      20.047001      20.857         19104.781      6962.9117      3701.9198      6547.4883     -382.92144     -2065.6344      114.33839    
   3861500   260.77668     -351.82703     -275.41093     -351.82687      0              6787.3912      45.867769      20.047001      20.857         19178.245      7957.1607      5929.2786      6475.7343     -445.30141     -486.1006      -42.13402     
   3862000   259.83561     -351.58334     -275.443       -351.58337      0              4790.2001      45.846624      20.047001      20.857         19169.404      6548.8564      4695.3173      3126.4265      406.49615     -2012.5834     -1572.5238    
   3862500   267.75536     -351.31796     -272.85687     -351.31482      0              5862.6954      45.790035      20.047001      20.857         19145.743      7295.8266      5634.8488      4657.4108     -659.10931     -479.90422     -739.00382    
   3863000   266.74377     -350.74375     -272.57909     -350.76721      0              4534.2158      45.893325      20.047001      20.857         19188.931      6001.8515      3750.2215      3850.5743     -1.6711887     -702.66858     -1802.5455    
   3863500   260.89206     -349.26464     -272.81472     -349.25912      0              5780.6299      45.82092       20.047001      20.857         19158.657      6130.5765      6811.0924      4400.2207     -188.5413      -1176.0858     -113.60332    
   3864000   265.88195     -349.42797     -271.51586     -349.44767      0              5506.7596      45.841687      20.047001      20.857         19167.34       6834.9804      4883.7808      4801.5175     -610.48507     -1861.0565     -1027.266     
   3864500   266.96376     -349.39254     -271.16341     -349.41065      0              6754.4179      45.712877      20.047001      20.857         19113.482      7554.079       5339.6262      7369.5485      293.83168      575.52535     -1014.2514    
   3865000   260.26729     -349.66398     -273.39714     -349.63749      0              5217.7967      45.538298      20.047001      20.857         19040.487      6664.318       3852.5         5136.572       474.55851      144.37389     -2381.5642    
   3865500   267.16895     -351.10828     -272.81903     -351.09923      0              5966.4331      45.529158      20.047001      20.857         19036.665      6267.3816      8042.793       3589.1248     -128.39968     -832.84257      360.19081    
   3866000   257.5823      -350.40929     -274.92924     -350.41041      0              7254.0748      45.808322      20.047001      20.857         19153.389      9585.9456      7603.1569      4573.1218     -303.16791     -682.57913     -1565.4608    
   3866500   260.35213     -353.41313     -277.12143     -353.37354      0              4437.8726      45.90443       20.047001      20.857         19193.574      5554.8734      3347.1889      4411.5556      419.63794     -395.63616     -822.64115    
   3867000   261.31715     -350.584       -274.00952     -350.60377      0              4182.0247      45.625974      20.047001      20.857         19077.146      5933.8355      3418.2716      3193.967       309.38962     -957.62886     -24.256021    
   3867500   268.04406     -350.82702     -272.28133     -350.83709      0              5660.4407      45.65518       20.047001      20.857         19089.357      6591.3757      5096.7558      5293.1904     -58.28072      -1740.9981     -1476.4471    
   3868000   269.63061     -352.32565     -273.31505     -352.29518      0              4912.5505      45.991523      20.047001      20.857         19229.989      5741.709       4851.3865      4144.556      -471.16212      637.92955      817.13979    
   3868500   274.37103     -351.80944     -271.40974     -351.82826      0              5108.5415      45.738914      20.047001      20.857         19124.368      5421.5526      5872.0313      4032.0405      2.8751415      55.894744      245.79231    
   3869000   260.11969     -350.3959      -274.17231     -350.39076      0              6718.1681      45.402225      20.047001      20.857         18983.592      9840.5338      5164.9618      5149.0086     -329.72194      137.36625      942.90428    
   3869500   262.32235     -349.90932     -273.04028     -349.91043      0              4877.5355      45.593855      20.047001      20.857         19063.716      5838.1307      5348.9518      3445.5241      538.64386     -884.55939     -969.70566    
   3870000   267.7818      -347.97274     -269.50391     -347.96617      0              2884.0954      45.77202       20.047001      20.857         19138.211      4652.8029      4485.7888     -486.30536      850.23735     -1986.7224     -126.58669    
   3870500   274.05478     -347.17834     -266.87131     -347.17671      0              6726.5207      45.70639       20.047001      20.857         19110.77       6989.2698      7052.5467      6137.7457      294.49047      706.47315     -1482.2305    
   3871000   263.0782      -348.46043     -271.3699      -348.43829      0              4264.9151      45.776529      20.047001      20.857         19140.096      7400.0179      1842.98        3551.7472     -291.04308     -614.41795     -377.6047     
   3871500   263.90568     -350.45227     -273.11926     -350.43816      0              4689.1862      45.672879      20.047001      20.857         19096.758      5630.4177      3687.9515      4749.1894      1988.2668     -460.81387     -1284.3492    
   3872000   261.41901     -347.22773     -270.62339     -347.20884      0              6635.7702      45.586902      20.047001      20.857         19060.809      6324.967       6037.2267      7545.117       174.83118     -226.46359      1334.7896    
   3872500   269.94959     -351.89203     -272.78796     -351.8321       0              5915.1374      45.562088      20.047001      20.857         19050.434      7666.973       4820.3463      5258.0929     -1550.0148      736.82329      1463.9853    
   3873000   267.99956     -352.88056     -274.34791     -352.85571      0              4970.708       45.63455       20.047001      20.857         19080.732      5644.0239      3600.1914      5667.9086      941.03832     -1983.5299      219.40633    
   3873500   264.62696     -350.07394     -272.52957     -350.02784      0              4696.0002      45.66106       20.047001      20.857         19091.816      6154.4084      3477.8229      4455.7692     -189.85361      788.24394      1695.827     
   3874000   267.97054     -354.71115     -276.18701     -354.63917      0              3612.3963      45.856039      20.047001      20.857         19173.341      3094.4354      3097.9823      4644.7712      1566.6686     -918.2023       51.857675    
   3874500   261.78896     -350.9221      -274.20936     -350.90122      0              5195.2997      45.818429      20.047001      20.857         19157.615      6181.0286      4412.0585      4992.8119     -944.19099     -10.537575      128.68474    
   3875000   270.08517     -351.13591     -271.99211     -351.1271       0              5834.2731      45.578776      20.047001      20.857         19057.411      8858.1337      3635.0307      5009.655      -82.700181      1966.0295      177.79945    
   3875500   258.60888     -353.42775     -277.64688     -353.38841      0              5740.4277      45.797413      20.047001      20.857         19148.828      5893.1299      4490.7843      6837.3689     -398.54911     -1248.3351      2272.8759    
   3876000   266.22591     -351.52758     -273.51467     -351.46884      0              3754.6623      46.075084      20.047001      20.857         19264.928      3086.5476      4103.5623      4073.877      -802.6731      -300.0435       630.9118     
   3876500   263.38342     -352.76347     -275.58351     -352.73469      0              5404.8169      45.992964      20.047001      20.857         19230.592      8707.8978      3898.8239      3607.729      -996.82748     -520.45946      185.09469    
   3877000   276.68602     -351.49068     -270.41261     -351.42159      0              3545.8074      45.812357      20.047001      20.857         19155.076      4566.5738      1957.0963      4113.7522     -144.49503     -200.26051      516.20699    
   3877500   264.00775     -350.44317     -273.08025     -350.4123       0              5954.1769      45.524713      20.047001      20.857         19034.807      4000.3454      7380.8427      6481.3425     -647.54817     -223.25629      763.92383    
   3878000   258.37764     -352.98436     -277.27125     -352.94519      0              5396.4866      45.489212      20.047001      20.857         19019.963      7576.884       3823.5655      4789.0102     -1705.5263     -1292.8183     -321.907      
   3878500   259.89212     -352.18475     -276.02785     -352.12905      0              3056.7781      45.719929      20.047001      20.857         19116.431      1078.969       2507.7245      5583.6409     -85.128037      249.98255     -800.19183    
   3879000   258.88769     -351.52172     -275.65915     -351.45488      0              6525.3326      45.714008      20.047001      20.857         19113.955      6096.6062      6637.6628      6841.7288      347.70196      1106.1128      531.22159    
   3879500   269.89099     -352.02969     -272.94279     -351.96198      0              3386.83        45.549054      20.047001      20.857         19044.984      2832.2097      1497.7901      5830.4902     -2056.7293     -182.9106       3.2763724    
   3880000   261.79968     -350.63356     -273.91768     -350.59223      0              6000.0862      45.507952      20.047001      20.857         19027.798      7461.0752      4179.6659      6359.5174     -1104.6384     -1179.2627      86.971564    
   3880500   266.5009      -351.95705     -273.86356     -351.93481      0              3288.7525      45.725361      20.047001      20.857         19118.702      4205.4109      6200.0931     -539.24654      171.26941      777.99637     -1686.5131    
   3881000   264.77917     -352.5839      -274.99493     -352.54252      0              4996.301       45.575472      20.047001      20.857         19056.03       5560.9051      5902.1117      3525.8863      215.63945      105.29453     -1021.3953    
   3881500   262.33021     -351.55262     -274.68128     -351.50798      0              5789.1001      45.449351      20.047001      20.857         19003.296      5311.9908      6829.7477      5225.5619      48.538904     -1598.3771     -234.92233    
   3882000   266.7407      -353.53077     -275.36701     -353.4783       0              5727.3117      45.642586      20.047001      20.857         19084.092      6334.3466      5623.0235      5224.5651     -1649.8013     -410.79984     -1580.6426    
   3882500   270.79637     -352.79534     -273.44313     -352.74607      0              4505.527       45.823038      20.047001      20.857         19159.542      3338.9735      3728.0247      6449.5827     -38.469497     -401.60532     -801.60345    
   3883000   262.98697     -350.31757     -273.25378     -350.27743      0              5666.9336      45.4748        20.047001      20.857         19013.937      5865.4353      4980.6921      6154.6733     -240.41177     -1569.2519     -1021.5604    
   3883500   262.94148     -351.88339     -274.83293     -351.84954      0              4786.2629      45.390957      20.047001      20.857         18978.88       4811.6432      5388.2581      4158.8874     -337.01305     -1032.1982     -740.31232    
   3884000   274.49522     -349.7209      -269.28481     -349.71338      0              5565.2411      45.650828      20.047001      20.857         19087.538      3920.0038      7232.7119      5543.0075      159.20471      681.74892      410.24161    
   3884500   266.48358     -352.48297     -274.39455     -352.48802      0              3512.5826      45.958733      20.047001      20.857         19216.279      6323.8468     -68.688414      4282.5894     -1615.9102      808.78841     -860.63043    
   3885000   274.96042     -352.27248     -271.70007     -352.19888      0              5801.8107      45.665092      20.047001      20.857         19093.502      6812.8136      5392.0844      5200.5341     -1619.8788     -950.04795      861.58097    
   3885500   258.51424     -350.98561     -275.23247     -350.92289      0              4863.8195      45.306306      20.047001      20.857         18943.486      4995.6638      5047.4232      4548.3715     -828.02975     -406.34781      377.3379     
   3886000   252.05079     -352.0909      -278.23176     -352.08563      0              6291.6502      45.650297      20.047001      20.857         19087.316      5562.7014      6902.0603      6410.189       218.25871     -621.42975     -288.57191    
   3886500   257.45688     -351.43768     -275.99438     -351.4327       0              6317.8825      45.863625      20.047001      20.857         19176.513      6008.7476      7000.4003      5944.4997     -234.80339     -102.75403     -428.22684    
   3887000   264.35383     -348.58062     -271.11629     -348.59278      0              5486.7806      45.72787       20.047001      20.857         19119.751      6511.9956      2612.7223      7335.6237     -826.54584     -1133.8878      965.44772    
   3887500   268.7275      -349.60182     -270.85586     -349.62043      0              5359.4237      45.799623      20.047001      20.857         19149.752      8042.5493      3838.4698      4197.2519      130.63535     -614.01354      1083.0403    
   3888000   269.67572     -353.64958     -274.62576     -353.62655      0              3759.6495      45.92113       20.047001      20.857         19200.557      2831.891       3798.8119      4648.2457     -730.45355      1340.3647     -515.93456    
   3888500   262.79933     -350.35514     -273.34633     -350.34602      0              6629.9392      45.752471      20.047001      20.857         19130.037      7603.92        6510.8363      5775.0612     -701.56579     -608.37523     -18.703877    
   3889000   256.94354     -350.20584     -274.91296     -350.21643      0              6561.357       45.569638      20.047001      20.857         19053.591      8533.1785      4691.2119      6459.6807     -2029.411       1732.2698     -826.41736    
   3889500   267.97874     -350.52647     -271.99993     -350.5276       0              6520.0332      45.562406      20.047001      20.857         19050.567      4590.701       7175.7816      7793.6169      467.45885      417.15451      326.11839    
   3890000   261.85362     -353.27218     -276.5405      -353.24296      0              5521.4926      45.612033      20.047001      20.857         19071.317      4298.5186      8145.9596      4119.9996     -874.34882      2087.4272     -1044.5918    
   3890500   267.03344     -353.61926     -275.36971     -353.57903      0              5738.9622      45.673512      20.047001      20.857         19097.022      5851.9645      7312.4647      4052.4576     -310.41348      313.25346     -642.43796    
   3891000   260.17565     -352.12645     -275.88647     -352.12559      0              5069.445       45.484943      20.047001      20.857         19018.178      5684.2306      4968.0756      4556.0286      942.20365      540.55107     -1126.2262    
   3891500   255.74906     -350.97119     -276.02834     -350.94018      0              5616.4187      45.749226      20.047001      20.857         19128.68       6226.3843      5019.2689      5603.603       311.82876      375.01658     -81.137425    
   3892000   258.50126     -351.15565     -275.40632     -351.16873      0              3556.2031      45.905003      20.047001      20.857         19193.813      4858.7323      3720.5742      2089.3027      64.426031     -248.74481      1399.3043    
   3892500   267.62008     -351.2617      -272.84025     -351.26214      0              6836.5831      45.484892      20.047001      20.857         19018.157      8890.2493      4224.6376      7394.8622     -233.40869      2431.1589     -2198.5028    
   3893000   266.71215     -346.66671     -268.51131     -346.66455      0              6580.9206      45.178249      20.047001      20.857         18889.943      9880.9092      4867.988       4993.8647      1832.6568     -371.25306     -1121.1025    
   3893500   262.07184     -351.01361     -274.21798     -351.01593      0              6040.5885      45.87333       20.047001      20.857         19180.571      7047.4484      5694.9453      5379.3717     -478.48893     -295.67157     -1013.7711    
   3894000   264.9795      -351.82608     -274.1784      -351.79572      0              4195.7362      46.110726      20.047001      20.857         19279.83       5668.4909      2996.4218      3922.2961      559.7201       257.17984      1544.589     
   3894500   274.02929     -351.44073     -271.14118     -351.38302      0              6721.621       45.595239      20.047001      20.857         19064.295      9359.6248      4247.917       6557.3212      153.52963     -371.98631     -291.22302    
   3895000   266.48587     -350.46948     -272.3804      -350.45081      0              6342.7859      45.610462      20.047001      20.857         19070.66       4809.654       8936.0322      5282.6717     -674.67973      47.027202      418.68217    
   3895500   263.25108     -350.74422     -273.60303     -350.71618      0              6664.79        45.725267      20.047001      20.857         19118.662      6873.7211      5761.8453      7358.8035      863.89183      1186.5541     -513.39271    
   3896000   270.37264     -352.31347     -273.08544     -352.30454      0              3364.3413      45.729289      20.047001      20.857         19120.344      6763.2915      267.09818      3062.6343     -1337.3402      1322.4037      1006.4534    
   3896500   262.02423     -350.22224     -273.44056     -350.20354      0              4444.5031      45.75816       20.047001      20.857         19132.415      1786.6057      5882.704       5664.1995      176.45857     -2297.9326     -1605.1423    
   3897000   262.76134     -350.57893     -273.58125     -350.55478      0              4710.4304      45.656969      20.047001      20.857         19090.106      3801.4406      6469.7868      3860.0638     -719.04019      538.71377      795.84836    
   3897500   256.60436     -354.18411     -278.99063     -354.10041      0              6020.0914      45.678156      20.047001      20.857         19098.964      5996.6105      6051.0659      6012.5978     -292.86012      139.09324     -1128.2605    
   3898000   257.67672     -353.981       -278.47328     -353.95494      0              4859.6599      45.959516      20.047001      20.857         19216.607      3364.6574      7901.1511      3313.1712     -295.77413      29.130623      1274.1542    
   3898500   262.73859     -352.28645     -275.29544     -352.24151      0              5652.9         45.847433      20.047001      20.857         19169.742      7059.3085      5862.2865      4037.105       308.61972     -1115.6328     -466.38066    
   3899000   266.04759     -347.83895     -269.87829     -347.78406      0              6172.2737      45.708878      20.047001      20.857         19111.81       7495.3116      4764.7916      6256.7179      699.10903      1630.1649      1452.7703    
   3899500   268.67807     -354.45287     -275.72139     -354.43251      0              5859.2709      45.734241      20.047001      20.857         19122.415      6397.7549      6873.8248      4306.233       860.0754       338.22092      714.94203    
   3900000   253.64735     -350.79292     -276.46594     -350.77409      0              4477.1755      45.760906      20.047001      20.857         19133.564      5248.2639      5013.5634      3169.6992     -1443.9041      944.79077     -581.07473    
   3900500   262.95864     -350.63391     -273.57841     -350.63806      0              3957.1492      45.676774      20.047001      20.857         19098.386      4994.6106      5475.3528      1401.4841      438.40945     -1192.4612      1320.0157    
   3901000   255.24969     -347.63689     -272.84037     -347.61974      0              5117.7686      45.722484      20.047001      20.857         19117.499      5768.9191      3737.7111      5846.6755      490.84549      761.91916     -639.20904    
   3901500   261.81885     -350.71134     -273.98985     -350.70638      0              5134.3456      45.863046      20.047001      20.857         19176.271      7844.3545      1003.2376      6555.4447      1148.4312      181.11375      1571.6241    
   3902000   258.22279     -349.17505     -273.50731     -349.15623      0              6089.5408      45.659465      20.047001      20.857         19091.149      6948.6962      7151.4369      4168.4893      1003.3852     -163.62773     -152.18159    
   3902500   268.57487     -351.92188     -273.22065     -351.93905      0              5478.3336      45.634885      20.047001      20.857         19080.872      8283.4028      3000.7639      5150.8342      229.62076     -32.915148      603.48526    
   3903000   260.58715     -349.68023     -273.31966     -349.69754      0              3165.3011      45.749676      20.047001      20.857         19128.868      4556.3651      2195.3089      2744.2295      692.73628      511.06427     -1675.9189    
   3903500   277.17341     -349.40513     -268.18425     -349.42531      0              4579.3737      45.74          20.047001      20.857         19124.822      6938.5876      4028.1363      2771.3971      271.25496     -1224.5155      1086.6596    
   3904000   266.49567     -350.04187     -271.94992     -350.04841      0              7400.065       45.705826      20.047001      20.857         19110.534      7763.0014      8672.926       5764.2674     -642.39065     -1368.9398      815.06173    
   3904500   263.9829      -349.28294     -271.92731     -349.28106      0              2461.1008      45.834601      20.047001      20.857         19164.377      3640.5303      3252.6365      490.1355      -671.8422      -1267.345       1851.4313    
   3905000   271.20672     -347.49383     -268.02138     -347.49471      0              6690.3484      45.903451      20.047001      20.857         19193.165      9657.1072      3719.7281      6694.21       -498.09149     -1274.7418      958.52226    
   3905500   261.12936     -349.04649     -272.52704     -349.04273      0              7510.868       46.028236      20.047001      20.857         19245.34       7075.2211      8369.483       7087.8999     -97.976319      1405.1119     -2369.2259    
   3906000   256.22348     -348.25763     -273.17576     -348.24438      0              4388.2886      45.663271      20.047001      20.857         19092.74       5710.9383      4773.662       2680.2656      568.91519     -1044.8019     -111.28469    
   3906500   269.37433     -348.6528      -269.7173      -348.61931      0              7540.3724      45.367654      20.047001      20.857         18969.137      9339.2255      7034.8508      6247.0411     -912.69318     -556.35269     -554.4887     
   3907000   273.46412     -352.84209     -272.70814     -352.79473      0              3888.6702      45.699443      20.047001      20.857         19107.865      4257.4913      3253.4623      4155.0572     -714.78818      1252.7931      875.07721    
   3907500   259.15794     -350.84849     -274.90672     -350.83902      0              2496.2409      45.846312      20.047001      20.857         19169.274      4226.043       400.19304      2862.4865      934.23771      503.72143      535.12614    
   3908000   267.28331     -352.01163     -273.68887     -351.9959       0              7020.0916      45.600996      20.047001      20.857         19066.702      7142.7436      7273.5125      6644.0188     -1186.0335     -65.022395     -50.228708    
   3908500   265.21577     -350.57717     -272.86026     -350.56949      0              5735.1113      45.69901       20.047001      20.857         19107.684      7400.0401      6129.2023      3676.0916      547.39767     -33.081784     -2174.8565    
   3909000   266.81725     -348.9167      -270.7305      -348.93433      0              6930.1375      45.95685       20.047001      20.857         19215.492      8137.1416      5103.3041      7549.9669      96.51482      -2652.1923     -1584.0764    
   3909500   262.6709      -348.40332     -271.43215     -348.42911      0              3092.8644      45.963943      20.047001      20.857         19218.458      5318.7573      3501.2787      458.55716      440.32111     -437.95346      1612.0144    
   3910000   257.55936     -352.22232     -276.749       -352.21325      0              5526.072       45.775504      20.047001      20.857         19139.667      8402.8559      5008.8335      3166.5266     -15.848663     -1042.7816      521.23566    
   3910500   262.20237     -352.93232     -276.09844     -352.89686      0              5382.5395      45.712556      20.047001      20.857         19113.347      6417.9906      4354.6635      5374.9642      291.99897      547.441       -969.78455    
   3911000   258.4664      -353.33798     -277.59886     -353.32336      0              5105.7185      45.841826      20.047001      20.857         19167.398      6156.8221      3437.275       5723.0582     -590.35892      250.48652      406.7971     
   3911500   264.07893     -351.06278     -273.679       -351.06118      0              4746.3282      45.856096      20.047001      20.857         19173.365      5591.949       5128.1305      3518.9052      50.304904      795.29439     -882.08897    
   3912000   256.92754     -349.01992     -273.73173     -349.01529      0              6357.4515      45.685019      20.047001      20.857         19101.834      8822.9272      4861.6731      5387.7544     -444.53341      702.18901     -122.77381    
   3912500   266.84187     -353.64546     -275.45206     -353.63912      0              6485.9506      45.701806      20.047001      20.857         19108.853      5134.3241      7618.2892      6705.2385      737.9111       470.42989      515.49267    
   3913000   267.80644     -351.81738     -273.34132     -351.80409      0              4896.9948      46.144919      20.047001      20.857         19294.127      6962.2337      4426.7527      3301.9979     -655.56102     -689.78437      1674.0754    
   3913500   267.87894     -351.4841      -272.98679     -351.48724      0              2957.1815      46.120066      20.047001      20.857         19283.736      2292.4781      5932.5488      646.51772     -569.03616      582.32648      231.4889     
   3914000   270.59761     -351.454       -272.16004     -351.43944      0              6154.0248      45.679411      20.047001      20.857         19099.489      6392.8615      5651.7664      6417.4465      216.63666     -471.98128     -1099.1045    
   3914500   258.60134     -350.81396     -275.0353      -350.82257      0              4496.8169      45.758254      20.047001      20.857         19132.455      4513.9043      3774.6217      5201.9249      39.043195     -1136.8855      401.61398    
   3915000   263.81235     -351.72451     -274.41885     -351.7339       0              5215.2903      45.881104      20.047001      20.857         19183.821      6139.5409      4984.3673      4521.9628      85.183139      850.8489       1125.3563    
   3915500   265.75199     -351.99736     -274.12333     -351.95178      0              4799.3204      45.781814      20.047001      20.857         19142.306      8133.7048      3373.59        2890.6663      240.81865      1424.7758     -50.806069    
   3916000   261.40301     -351.52062     -274.92098     -351.49209      0              5371.8385      45.915559      20.047001      20.857         19198.227      7544.883       5092.6214      3478.0112     -1027.2336     -370.55004      2217.153     
   3916500   264.19079     -351.23874     -273.82219     -351.20754      0              4633.538       45.986794      20.047001      20.857         19228.012      4381.1466      5006.7898      4512.6776      460.3496       2218.5669      789.96957    
   3917000   262.55676     -351.13597     -274.19825     -351.13398      0              4492.9874      45.809204      20.047001      20.857         19153.758      3820.6782      3282.393       6375.891      -2012.8484     -370.31481      2759.0541    
   3917500   257.80686     -349.52082     -273.97496     -349.50512      0              7130.3761      45.646326      20.047001      20.857         19085.656      6893.9648      7046.0354      7451.128       640.89746     -1585.6134      326.10864    
   3918000   262.99182     -351.42922     -274.364       -351.40947      0              5176.5726      45.81861       20.047001      20.857         19157.691      5985.8025      4809.9351      4733.9802     -138.35406     -827.21266     -847.07874    
   3918500   263.6828      -352.32626     -275.05856     -352.28722      0              5109.7997      46.024402      20.047001      20.857         19243.737      5923.1638      5362.9315      4043.304      -354.61258     -997.38138     -396.10884    
   3919000   264.12384     -352.88682     -275.48989     -352.84566      0              3422.0431      46.061028      20.047001      20.857         19259.051      4164.1924      2122.5372      3979.3997      1483.934       84.633497      386.67374    
   3919500   263.13092     -352.84486     -275.73888     -352.79028      0              4523.3045      45.417594      20.047001      20.857         18990.018      4572.5218      5681.4521      3315.9395      920.59002      1280.481       222.99192    
   3920000   265.96418     -350.73989     -272.80368     -350.70974      0              8005.7301      45.395303      20.047001      20.857         18980.698      7724.9035      7770.9196      8521.3672      285.09887      1174.7614     -1555.7782    
   3920500   268.22677     -351.14396     -272.54473     -351.12838      0              6086.7489      45.774525      20.047001      20.857         19139.258      7642.0866      5961.2985      4656.8616      10.473588      240.9868      -1126.9806    
   3921000   265.62594     -350.35971     -272.52261     -350.32362      0              4993.5333      45.850367      20.047001      20.857         19170.969      6827.843       4377.6512      3775.1058     -102.64357      317.49463      755.20073    
   3921500   268.28626     -351.84758     -273.23092     -351.85544      0              5153.8819      45.617721      20.047001      20.857         19073.695      4123.0372      6356.9726      4981.636      -478.79625      1038.4414      626.39913    
   3922000   261.05445     -351.13167     -274.63417     -351.10605      0              4972.7983      45.352052      20.047001      20.857         18962.614      7574.5725      3549.1193      3794.703       1731.9077     -553.59         1022.3003    
   3922500   265.36557     -353.72751     -275.9667      -353.66447      0              3057.849       45.547535      20.047001      20.857         19044.349      4414.2611      2843.1797      1916.1063     -1365.5425      209.76583      1560.7838    
   3923000   264.42698     -352.12        -274.63424     -352.04507      0              5072.3704      45.752679      20.047001      20.857         19130.124      5027.0057      4800.7609      5389.3446      1362.7074      704.72866     -872.93346    
   3923500   266.10799     -353.55728     -275.57892     -353.47681      0              6178.7153      45.543158      20.047001      20.857         19042.519      6048.2525      8196.4393      4291.4541     -604.14561      420.58355      740.15697    
   3924000   251.53475     -350.0967      -276.38878     -350.04404      0              5129.2788      45.421231      20.047001      20.857         18991.539      5695.0488      6519.2765      3173.5109     -971.73774     -1351.2759     -1908.8128    
   3924500   255.15257     -350.15269     -275.38464     -350.09606      0              4424.3157      45.580683      20.047001      20.857         19058.209      2936.0818      6424.5173      3912.3481     -1027.5099      1325.6296      1553.0223    
   3925000   264.88204     -351.9137      -274.29459     -351.84677      0              5401.4023      45.740383      20.047001      20.857         19124.982      5547.5161      5244.1012      5412.5898      661.72376      561.6035      -3356.7006    
   3925500   264.28882     -352.21031     -274.76504     -352.18782      0              4441.4861      45.597145      20.047001      20.857         19065.092      2650.9852      5071.557       5601.916       583.95382      867.28887     -146.91625    
   3926000   255.74344     -347.15794     -272.21674     -347.17257      0              6339.369       45.590524      20.047001      20.857         19062.324      4850.2358      7109.7964      7058.0748     -451.24036      332.41654      1723.4268    
   3926500   269.88321     -348.37727     -269.29265     -348.34501      0              6803.1489      45.680743      20.047001      20.857         19100.046      8309.088       7587.4633      4512.8956     -667.84049      602.92989     -147.17756    
   3927000   265.9394      -350.96559     -273.03664     -350.96594      0              4687.2692      45.820688      20.047001      20.857         19158.56       4518.3563      4696.8249      4846.6266     -146.32059     -371.73664      653.50348    
   3927500   269.14667     -348.63576     -269.76697     -348.58332      0              6416.4031      45.454184      20.047001      20.857         19005.317      5963.129       6584.8741      6701.2062     -723.32707     -438.09609      763.74977    
   3928000   270.17364     -351.43766     -272.26794     -351.35815      0              7202.0777      45.336062      20.047001      20.857         18955.928      8414.6938      7077.4952      6114.0442     -978.20909     -155.65933     -392.22109    
   3928500   265.15143     -348.54663     -270.84858     -348.4895       0              4183.8226      45.704739      20.047001      20.857         19110.079      6105.5218      1409.8639      5036.0822      755.71923      1991.1344      136.97791    
   3929000   269.16252     -349.76115     -270.88771     -349.72719      0              4439.8542      45.819456      20.047001      20.857         19158.045      6403.2465      4036.7259      2879.5903      330.70822     -278.65722      1112.1965    
   3929500   269.56081     -349.9743      -270.98415     -349.95105      0              3954.5214      45.778023      20.047001      20.857         19140.721      2516.147       4072.7939      5274.6233     -687.20553      279.29302     -1144.6085    
   3930000   267.00085     -349.68812     -271.44813     -349.68684      0              6335.2323      45.619388      20.047001      20.857         19074.392      7750.7603      5972.3602      5282.5763      194.88104      76.65275       880.84909    
   3930500   263.02        -347.90301     -270.82954     -347.91399      0              4904.1097      45.937232      20.047001      20.857         19207.289      6459.2886      4967.0184      3286.0222     -557.35734      314.40673     -82.519506    
   3931000   264.93166     -348.42714     -270.79349     -348.40684      0              8261.4626      45.657753      20.047001      20.857         19090.433      10650.791      8006.0238      6127.5733     -42.866654     -372.60968      491.87989    
   3931500   264.91253     -350.8755      -273.24745     -350.82524      0              6342.1108      45.419797      20.047001      20.857         18990.939      6350.1094      5824.5852      6851.6377     -765.15432     -13.535109     -365.62902    
   3932000   265.80706     -349.20243     -271.31226     -349.15836      0              5239.117       45.628227      20.047001      20.857         19078.088      6941.3753      3466.672       5309.3037     -871.10153      614.29486     -1733.5033    
   3932500   264.37107     -350.42482     -272.95544     -350.36515      0              4148.3722      45.687998      20.047001      20.857         19103.079      4953.7735      4121.6997      3369.6435      380.74602     -1040.3255     -1571.9191    
   3933000   261.9236      -350.76085     -274.00866     -350.73361      0              3792.7148      45.708574      20.047001      20.857         19111.683      4090.0194      3608.9192      3679.2057     -1285.3863     -547.94773      1356.4213    
   3933500   265.71488     -351.85878     -273.99562     -351.83411      0              5794.8792      45.477896      20.047001      20.857         19015.232      5821.3553      5480.0671      6083.2153      493.86864      1845.0104      431.91545    
   3934000   264.8759      -351.08449     -273.46717     -351.05754      0              6298.527       45.522569      20.047001      20.857         19033.91       7080.4983      5327.167       6487.9158     -893.83718     -2269.3507     -413.35405    
   3934500   261.66555     -348.31944     -271.64286     -348.29824      0              3612.6739      45.782678      20.047001      20.857         19142.667      2667.3518      4568.3675      3602.3025     -473.25108      704.43506      1794.8363    
   3935000   271.03723     -351.67384     -272.25105     -351.61733      0              5921.699       45.656428      20.047001      20.857         19089.879      6781.9203      4307.0389      6676.1379     -591.50796     -983.20828     -920.81862    
   3935500   265.37667     -348.5003      -270.73624     -348.43656      0              6709.7989      45.507225      20.047001      20.857         19027.494      6959.6468      6849.4408      6320.3091      305.79607     -650.89392     -913.47532    
   3936000   266.7198      -348.18674     -270.0291      -348.14296      0              5486.2933      45.734758      20.047001      20.857         19122.631      6624.2177      3884.8619      5949.8002     -88.016274     -1779.9152      322.14844    
   3936500   270.40459     -351.20293     -271.96553     -351.19316      0              6338.7116      45.700777      20.047001      20.857         19108.423      8284.9612      5251.4662      5479.7075      877.70573     -924.77284     -567.99701    
   3937000   260.46079     -350.78258     -274.45904     -350.74908      0              3969.9192      45.79892       20.047001      20.857         19149.458      4713.1153      4000.8506      3195.7917      559.18064     -809.0131       1617.0183    
   3937500   270.31106     -350.52526     -271.31527     -350.48251      0              4536.4615      45.608887      20.047001      20.857         19070.001      6029.4545      4186.7057      3393.2243      539.44828     -160.73965      120.44087    
   3938000   257.96351     -349.43041     -273.83865     -349.37195      0              6773.208       45.381535      20.047001      20.857         18974.941      5989.0893      8653.0439      5677.4907      810.96569     -928.92163      2361.8132    
   3938500   251.78358     -350.26045     -276.47962     -350.23922      0              6356.8972      45.683274      20.047001      20.857         19101.104      5235.0907      6474.5338      7361.067      -638.3522      -2075.3168      753.58502    
   3939000   262.66575     -351.85984     -274.89017     -351.80042      0              3527.6327      45.879592      20.047001      20.857         19183.189      2770.4729      5451.7529      2360.6722     -20.35049      -616.169       -889.0361     
   3939500   260.12336     -347.81353     -271.58887     -347.80757      0              5418.1724      45.617728      20.047001      20.857         19073.698      7106.252       4082.2232      5066.0421     -400.19928     -345.6086      -1324.8613    
   3940000   264.29802     -348.38231     -270.93433     -348.36364      0              4575.909       45.593787      20.047001      20.857         19063.688      3229.4927      4993.6546      5504.5798      1183.8412     -756.45578      1695.3778    
   3940500   262.29575     -348.0857      -271.22446     -348.06775      0              4500.523       45.612821      20.047001      20.857         19071.646      7757.8197      3172.9439      2570.8055     -268.47767      400.87747     -1561.7767    
   3941000   262.93383     -349.40509     -272.35687     -349.37879      0              7278.4377      45.702958      20.047001      20.857         19109.335      8508.0057      4705.3468      8621.9605      111.46018     -398.34464     -3071.605     
   3941500   261.07994     -349.08475     -272.57978     -349.08002      0              5188.5157      45.678816      20.047001      20.857         19099.24       6565.309       3672.3585      5327.8796      1442.9374      1493.696      -565.3524     
   3942000   267.83702     -350.19366     -271.70864     -350.14609      0              6185.2581      45.488651      20.047001      20.857         19019.728      5388.8238      6719.5855      6447.3649      946.0994      -1141.6338      526.26259    
   3942500   267.12783     -348.52342     -270.24622     -348.49948      0              6276.959       45.119167      20.047001      20.857         18865.239      8719.6074      6979.4994      3131.7702      244.97236     -272.5507       916.24725    
   3943000   262.45038     -348.72429     -271.81773     -348.71722      0              4233.549       45.491666      20.047001      20.857         19020.989      4285.1382      3160.1719      5255.3367     -1739.634       640.56176      430.03985    
   3943500   264.17575     -348.16616     -270.75401     -348.14406      0              6772.174       45.707956      20.047001      20.857         19111.424      5985.4405      9004.0527      5327.0288     -405.07918     -848.26211     -1948.6872    
   3944000   261.11395     -349.07222     -272.55729     -349.0561       0              6921.9842      45.422411      20.047001      20.857         18992.032      7883.9023      6251.5648      6630.4855      658.63711      1459.8912      58.812407    
   3944500   265.01502     -347.96271     -270.30463     -347.93865      0              4464.0713      45.32751       20.047001      20.857         18952.352      5903.9868      3515.5005      3972.7265      1296.4449     -254.90614      2439.1653    
   3945000   267.10819     -348.7192      -270.44776     -348.69372      0              7505.4638      45.659079      20.047001      20.857         19090.988      7915.9893      8969.6566      5630.7455     -130.59489      361.47779      714.15152    
   3945500   267.46258     -348.05618     -269.68089     -348.04912      0              6394.3973      45.665891      20.047001      20.857         19093.836      5521.015       6413.6526      7248.5243      21.293223      120.96983      1183.0336    
   3946000   271.65033     -347.20695     -267.60451     -347.20933      0              4640.6637      45.423387      20.047001      20.857         18992.44       3960.4335      5540.1354      4421.4221     -646.70079      11.854432     -1993.6849    
   3946500   263.68929     -347.40435     -270.13475     -347.36392      0              7616.1376      45.374863      20.047001      20.857         18972.152      7849.8738      5786.1537      9212.3852      1139.966       67.665783      833.56128    
   3947000   264.02585     -346.72501     -269.35679     -346.72719      0              6559.6116      45.900565      20.047001      20.857         19191.958      7619.6944      8560.3392      3498.8012     -182.05167     -502.90577      470.38805    
   3947500   268.32481     -351.5956      -272.96764     -351.5886       0              4624.642       45.962374      20.047001      20.857         19217.802      5303.6055      4875.6077      3694.7128      862.35417      475.32041     -138.8879     
   3948000   268.73518     -349.93524     -271.18703     -349.9204       0              6813.5847      45.609465      20.047001      20.857         19070.243      8320.7449      4683.1881      7436.8211      665.94588     -141.149       -826.81252    
   3948500   265.05097     -350.36048     -272.69186     -350.33715      0              7397.41        45.572149      20.047001      20.857         19054.64       7229.2135      8156.4185      6806.5981     -276.17171     -110.28989     -1087.8802    
   3949000   264.40245     -351.43255     -273.95397     -351.44439      0              4316.0675      45.844533      20.047001      20.857         19168.53       5804.4137      2903.0836      4240.7053      1298.3832     -2.8658495      595.55954    
   3949500   262.8867      -348.90831     -271.8739      -348.90536      0              4902.5777      45.75976       20.047001      20.857         19133.084      5251.8432      6510.2736      2945.6164     -1000.3033      140.56168      633.44644    
   3950000   261.30023     -348.61877     -272.04924     -348.57524      0              4414.2374      45.502971      20.047001      20.857         19025.716      3267.8541      5565.0532      4409.805      -611.56796     -580.5603       167.32198    
   3950500   264.55595     -349.4724      -271.94884     -349.45587      0              4320.1667      45.7798        20.047001      20.857         19141.464      5854.2143      4083.7109      3022.5748      129.80643      636.59217     -706.97107    
   3951000   267.39284     -351.88833     -273.53347     -351.87104      0              4622.188       45.956384      20.047001      20.857         19215.297      6334.9625      2383.319       5148.2825      238.65942      39.372813     -244.72383    
   3951500   270.81107     -350.38807     -271.03156     -350.36301      0              4234.619       45.760611      20.047001      20.857         19133.44       8198.034       3055.6037      1450.2193     -1065.5349      235.36289      288.19689    
   3952000   257.90901     -351.32343     -275.74764     -351.28081      0              4706.5506      45.508557      20.047001      20.857         19028.052      6246.0917      4803.8609      3069.699       2120.872       1505.0444      1582.8915    
   3952500   262.30635     -353.29171     -276.42736     -353.24921      0              4509.2416      45.605457      20.047001      20.857         19068.568      4670.7308      3971.0332      4885.9608     -1671.5167     -161.14885      1348.53      
   3953000   263.47202     -351.34765     -274.14172     -351.36443      0              6202.597       46.068523      20.047001      20.857         19262.185      7297.0528      5990.3076      5320.4306     -143.20373     -9.5084791      1347.5245    
   3953500   262.69711     -347.78905     -270.81019     -347.81126      0              4344.4385      45.856388      20.047001      20.857         19173.487      2516.4057      6412.4805      4104.4291     -843.41247      562.07072      282.87679    
   3954000   265.97002     -348.0772      -270.13928     -348.05616      0              5265.1035      45.681513      20.047001      20.857         19100.368      7639.7903      5175.2185      2980.3016      779.9392      -725.45829      358.29701    
   3954500   265.29417     -350.81949     -273.07961     -350.78006      0              5876.6179      45.976373      20.047001      20.857         19223.655      7057.4326      5941.9705      4630.4507      251.94988     -595.07174     -387.38367    
   3955000   263.58518     -351.65931     -274.42023     -351.62603      0              6851.7454      46.081408      20.047001      20.857         19267.572      8441.4537      6782.5343      5331.2483     -1426.6736      310.06455      1975.1781    
   3955500   265.34914     -348.95862     -271.20263     -348.96269      0              4563.5329      45.833087      20.047001      20.857         19163.744      4924.3775      3781.0584      4985.1628     -744.54251     -688.80162      583.18951    
   3956000   259.40885     -351.42925     -275.41396     -351.42609      0              4610.6481      45.820748      20.047001      20.857         19158.585      3389.3754      3869.9448      6572.6242     -417.97464     -526.79714      1930.7643    
   3956500   261.87222     -351.27682     -274.53969     -351.27803      0              5398.5276      46.015172      20.047001      20.857         19239.877      5110.2717      7348.9141      3736.3971      646.41612     -358.46305     -1089.8481    
   3957000   269.71924     -351.71457     -272.678       -351.72413      0              4719.3775      46.068575      20.047001      20.857         19262.206      4872.99        4141.4173      5143.7251      425.4483       559.51066      1116.363     
   3957500   264.55564     -350.02133     -272.49786     -349.98851      0              5515.6382      45.760743      20.047001      20.857         19133.496      5955.8188      6876.0935      3715.0022     -107.39667      162.34363     -498.58808    
   3958000   272.73649     -351.85032     -271.9296      -351.82786      0              3734.7795      45.828669      20.047001      20.857         19161.897      5061.5557      3954.9848      2187.7979      105.98505     -396.63177      1099.3723    
   3958500   267.19121     -348.21281     -269.91703     -348.20004      0              5817.9045      46.179224      20.047001      20.857         19308.471      5918.0335      5941.236       5594.444      -102.08295     -2699.4477      1278.9782    
   3959000   269.00242     -350.6306      -271.80409     -350.63085      0              2806.3179      45.990468      20.047001      20.857         19229.548      2029.4874      4729.9068      1659.5593      531.8807      -209.14919      313.64227    
   3959500   267.24782     -351.34984     -273.03747     -351.32313      0              5261.8628      45.502464      20.047001      20.857         19025.504      6085.2914      4930.3785      4769.9184     -1643.5191      1067.2973      1306.0054    
   3960000   254.70115     -353.00043     -278.36465     -352.93966      0              5949.2189      45.409622      20.047001      20.857         18986.685      6077.7725      6273.9835      5495.9009      749.65746      995.48093      1029.5328    
   3960500   269.43209     -352.83659     -273.88416     -352.82414      0              2605.1231      45.837864      20.047001      20.857         19165.741      2913.9941      4087.9203      813.45499     -1297.0731     -1532.7195     -1160.0461    
   3961000   272.25401     -351.50742     -271.72808     -351.46617      0              3774.6602      45.806279      20.047001      20.857         19152.535      4274.1736      2872.9776      4176.8295     -1051.1665     -1282.7526     -361.19707    
   3961500   268.69558     -348.77        -270.0334      -348.742        0              7035.8899      45.524612      20.047001      20.857         19034.764      8224.5485      5559.2843      7323.8369      1049.4986      1282.4966     -886.51209    
   3962000   266.11942     -350.77236     -272.79066     -350.75108      0              6200.6265      45.698516      20.047001      20.857         19107.477      7189.6352      6190.054       5222.1903     -946.95024     -994.08551     -593.75424    
   3962500   258.7444      -349.18505     -273.36447     -349.15107      0              4686.1498      45.823594      20.047001      20.857         19159.775      6057.2342      5543.5681      2457.6472      1596.7711     -250.18698      989.32274    
   3963000   270.56289     -351.6596      -272.37581     -351.61531      0              6342.6536      45.478458      20.047001      20.857         19015.467      4347.1745      8642.1967      6038.5895     -934.53537     -2028.6868     -86.159769    
   3963500   266.67983     -348.10748     -269.96155     -348.07646      0              6061.5057      45.353321      20.047001      20.857         18963.144      7946.8397      4923.3824      5314.2951      626.29704      342.6268      -241.47841    
   3964000   264.87279     -349.57738     -271.96098     -349.56389      0              4107.4202      45.729643      20.047001      20.857         19120.492      2501.004       5275.5312      4545.7255     -1095.8013     -555.87323      1762.094     
   3964500   264.69638     -349.15801     -271.5933      -349.15076      0              3961.9991      45.909058      20.047001      20.857         19195.509      4657.6802      3206.8984      4021.4187     -1331.6128      603.72638     -481.60015    
   3965000   268.01341     -350.60006     -272.06335     -350.56781      0              7005.2433      45.666978      20.047001      20.857         19094.29       5161.6075      10703.265      5150.857      -80.622817     -1839.9234     -456.79451    
   3965500   264.1338      -348.60206     -271.2022      -348.55697      0              4894.8053      45.416282      20.047001      20.857         18989.47       5134.1929      3389.0067      6161.2163     -1420.5942     -1333.5378      639.33339    
   3966000   269.03112     -351.43484     -272.59991     -351.41648      0              4822.2875      45.56749       20.047001      20.857         19052.692      3677.6047      5200.8892      5588.3687      214.38276     -424.7083       1572.0678    
   3966500   262.32028     -349.87754     -273.00911     -349.87322      0              6217.773       45.6158        20.047001      20.857         19072.892      6020.4647      3894.1202      8738.734      -1003.1364     -2212.2187      185.22196    
   3967000   263.76063     -350.87924     -273.58873     -350.87483      0              4447.5953      45.801507      20.047001      20.857         19150.54       4377.346       5058.0686      3907.3714     -370.05321      394.08614      258.23606    
[...]
   7614500   269.81568     -349.82376     -270.75892     -349.82155      0              4089.2338      45.751766      20.047001      20.857         19129.742      4271.4137      5512.4822      2483.8056      134.42561      280.06642     -259.32892    
   7615000   265.18735     -352.51697     -274.80839     -352.51161      0              4430.5952      45.643508      20.047001      20.857         19084.477      5464.5285      3950.6132      3876.6438      338.83663      1379.7544      1434.8568    
   7615500   260.15858     -350.92039     -274.68541     -350.95581      0              7408.0293      45.834291      20.047001      20.857         19164.247      5136.7869      9282.1991      7805.1018     -1100.977      -51.26123      -2125.0997    
   7616000   266.07252     -352.12942     -274.16146     -352.11748      0              4562.977       46.027245      20.047001      20.857         19244.926      5371.4511      3954.6701      4362.8099      566.02215      2310.1112      1058.6039    
   7616500   265.82673     -352.67579     -274.77986     -352.65447      0              6103.7994      45.936302      20.047001      20.857         19206.901      5803.293       3351.5129      9156.5923     -657.47043     -1018.4825     -1038.6015    
   7617000   263.27687     -351.17104     -274.02229     -351.15666      0              5828.3254      45.623343      20.047001      20.857         19076.046      4618.2809      6695.7096      6170.9856     -1658.918       406.24583      1338.6532    
   7617500   270.95614     -350.28371     -270.88469     -350.28328      0              5987.0782      45.377039      20.047001      20.857         18973.061      5923.9376      5952.2079      6085.0892      103.29175     -2130.7892     -1157.0878    
   7618000   262.02073     -350.70858     -273.92793     -350.69938      0              6631.6964      45.641252      20.047001      20.857         19083.534      7745.6033      6785.106       5364.3799     -1571.0768     -123.90725     -668.14037    
   7618500   275.0881      -351.26148     -270.65165     -351.22229      0              5718.1102      45.884591      20.047001      20.857         19185.279      4092.3646      4565.9244      8496.0415     -340.68925      1001.0719      391.79775    
   7619000   263.95576     -349.64077     -272.29309     -349.59412      0              6566.8779      45.78324       20.047001      20.857         19142.902      5116.6195      6599.6482      7984.366      -298.04234      2.2157267      1258.1462    
   7619500   267.56169     -348.01732     -269.61299     -347.99437      0              9502.4737      45.368565      20.047001      20.857         18969.518      11155.03       10360.262      6992.1295      1958.9103      522.98607     -1447.818     
   7620000   269.72322     -349.30265     -270.26491     -349.29449      0              5164.8633      45.75727       20.047001      20.857         19132.044      7975.3302      2302.6575      5216.6023     -683.57681      455.87746      53.001644    
   7620500   267.16982     -347.73662     -269.44711     -347.72973      0              5023.691       45.894257      20.047001      20.857         19189.32       4770.4464      6279.1517      4021.4749      341.81207      347.68558     -1376.6413    
   7621000   263.28193     -347.50109     -270.35087     -347.46251      0              6368.4141      45.523797      20.047001      20.857         19034.424      5818.073       8109.7542      5177.415       1176.8524     -434.84428     -190.49714    
   7621500   270.80885     -347.605       -268.24914     -347.59947      0              4667.0083      45.538732      20.047001      20.857         19040.668      5021.2196      4588.7417      4391.0637     -1377.6013     -563.65399     -655.95844    
   7622000   261.68639     -346.38895     -269.70627     -346.3795       0              6036.9408      45.664393      20.047001      20.857         19093.21       8229.0084      4231.1694      5650.6445      604.81979     -378.96603     -34.555095    
   7622500   267.05488     -347.26831     -269.01248     -347.24523      0              5313.0318      45.763486      20.047001      20.857         19134.642      5197.8891      4941.9068      5799.2995      91.04774      -282.5778      -1711.8347    
   7623000   260.39762     -350.06712     -273.76209     -350.01928      0              3090.4278      45.389057      20.047001      20.857         18978.086      4335.8518      1339.374       3596.0576      328.07154      1131.6828     -10.808606    
   7623500   265.37461     -349.24504     -271.48159     -349.2186       0              7535.9781      45.094678      20.047001      20.857         18855          8040.2214      7411.215       7156.4979     -479.44772     -395.05858     -390.87588    
   7624000   266.01239     -348.7661      -270.81576     -348.7651       0              7189.0783      45.421108      20.047001      20.857         18991.487      8582.2268      5999.6092      6985.3989      776.15233     -1063.3671      3.5166866    
   7624500   263.64059     -349.31866     -272.06333     -349.3089       0              2858.84        45.785087      20.047001      20.857         19143.674      2919.2524      2365.6928      3291.5749     -828.81856      907.76882      688.97038    
   7625000   263.46845     -351.92213     -274.71724     -351.91759      0              5749.2487      45.582696      20.047001      20.857         19059.051      8133.1175      4640.7329      4473.8957     -258.11511      412.81639     -570.91161    
   7625500   262.73984     -350.81344     -273.82207     -350.78833      0              5433.4031      45.564811      20.047001      20.857         19051.573      3741.6619      8262.637       4295.9105     -861.32304     -963.95444     -347.07962    
   7626000   265.50852     -352.36043     -274.55774     -352.33082      0              4930.8379      45.504836      20.047001      20.857         19026.496      5057.4907      6898.1377      2836.8854      1622.0501      518.71482      817.25226    
   7626500   261.7079      -349.66263     -272.97364     -349.68192      0              7707.1016      45.481851      20.047001      20.857         19016.885      6521.0458      8256.5017      8343.7575     -597.97629     -339.31563      96.559748    
   7627000   259.69777     -349.93262     -273.83267     -349.90552      0              5703.8249      45.374664      20.047001      20.857         18972.068      6649.3154      4949.8927      5512.2666     -1428.2818     -1690.1635      1133.6673    
   7627500   273.85393     -351.58199     -271.33382     -351.55968      0              6863.9398      45.43032       20.047001      20.857         18995.339      5644.1626      7840.9101      7106.7465      435.97352      1568.8469      371.59562    
   7628000   258.10123     -350.29044     -274.65833     -350.28986      0              4183.032       45.687703      20.047001      20.857         19102.956      5262.7922      4179.8143      3106.4896      767.5854       1335.2942      628.62195    
   7628500   263.59493     -351.69531     -274.45336     -351.70002      0              6246.517       45.706865      20.047001      20.857         19110.968      5715.6395      6234.734       6789.1774     -268.31638      389.12296     -846.49416    
   7629000   266.70714     -350.94341     -272.78949     -350.94876      0              4464.1472      45.476575      20.047001      20.857         19014.679      4455.7402      3454.4758      5482.2255     -1079.4711      924.10359      594.22613    
   7629500   265.0687      -352.91349     -275.23968     -352.88932      0              9292.7541      45.596547      20.047001      20.857         19064.842      10611.848      7202.4018      10064.013      167.32676     -365.37542     -1305.1098    
   7630000   256.57389     -351.74752     -276.56297     -351.66252      0              6512.7209      45.592826      20.047001      20.857         19063.286      7358.2661      6688.5479      5491.3487      298.81496     -798.33934      504.44288    
   7630500   262.64954     -352.38007     -275.41515     -352.3532       0              4772.0875      45.459858      20.047001      20.857         19007.69       3298.8721      5353.3506      5664.0397     -652.08849      266.54831     -651.35609    
   7631000   272.52465     -351.88803     -272.02938     -351.8413       0              5030.1666      45.357179      20.047001      20.857         18964.757      4473.3988      4884.7825      5732.3184      1569.8042     -599.33084     -1098.4975    
   7631500   268.24587     -352.21117     -273.60634     -352.15584      0              6309.4645      45.347603      20.047001      20.857         18960.754      10070.261      3063.4918      5794.6409     -1839.5635      884.24082      1716.0548    
   7632000   267.99817     -349.44416     -270.91192     -349.367        0              3274.6145      45.642814      20.047001      20.857         19084.187      2675.9943      5497.4927      1650.3565      651.14057      721.02934     -201.04936    
   7632500   270.43923     -351.91053     -272.66298     -351.83653      0              6079.1645      45.686527      20.047001      20.857         19102.464      7175.5858      6772.685       4289.2228     -131.64685     -96.539946     -563.49086    
   7633000   269.96884     -352.86444     -273.75473     -352.83956      0              5390.7735      45.452819      20.047001      20.857         19004.746      5866.0482      4440.7954      5865.4769     -1712.865       519.02701     -658.38922    
   7633500   265.52908     -350.47877     -272.67005     -350.42808      0              8828.0003      45.293043      20.047001      20.857         18937.941      9108.2586      7057.1249      10318.617      649.54964      1668.9051      16.806006    
   7634000   258.02387     -350.30241     -274.69297     -350.22076      0              4786.3275      45.612885      20.047001      20.857         19071.673      4854.6323      4387.242       5117.1083      780.25366     -1963.634       262.8686     
   7634500   259.91449     -352.22353     -276.06008     -352.20067      0              6117.2277      45.421674      20.047001      20.857         18991.724      6316.5082      5359.0687      6676.1061      249.53073     -148.71459     -1954.2229    
   7635000   260.2902      -353.30198     -277.02843     -353.28455      0              6432.1118      45.250794      20.047001      20.857         18920.276      5607.0017      6354.5511      7334.7828      628.49915     -630.14783      163.33548    
   7635500   260.55242     -350.15069     -273.8003      -350.1462       0              7067.0444      45.522313      20.047001      20.857         19033.803      8440.9218      5524.2077      7236.0037      803.89678      473.44182      2010.6799    
   7636000   267.10529     -349.45032     -271.17973     -349.44929      0              6774.885       45.909051      20.047001      20.857         19195.506      8149.1829      5987.7287      6187.7435     -439.89703      690.69692      444.3757     
   7636500   259.71968     -347.46669     -271.36031     -347.42824      0              5547.0551      45.701414      20.047001      20.857         19108.689      5492.0251      4102.1782      7046.9619      182.33827      2042.9532      525.89826    
   7637000   260.51814     -346.02861     -269.68826     -345.99048      0              5060.4906      45.528175      20.047001      20.857         19036.254      8351.5188      3258.0959      3571.8572     -148.31795     -394.20366     -857.20682    
   7637500   256.25338     -351.74168     -276.65105     -351.69035      0              5888.091       45.523292      20.047001      20.857         19034.212      7499.1289      4512.1814      5652.9628      349.23612     -1472.7893     -1220.4976    
   7638000   267.31459     -349.78358     -271.45165     -349.72522      0              4728.8096      45.513466      20.047001      20.857         19030.104      3634.9621      6103.3887      4448.0779     -880.51856      2013.4598      186.1317     
   7638500   266.48311     -350.54686     -272.45858     -350.48021      0              5652.8236      45.559987      20.047001      20.857         19049.555      6088.7153      5259.189       5610.5664     -210.06453     -1051.5319      910.38656    
   7639000   258.04654     -349.36689     -273.75081     -349.30864      0              3864.3119      45.524067      20.047001      20.857         19034.537      6014.5113      4413.0206      1165.4038     -662.52668      119.00533      1028.8116    
   7639500   262.80481     -349.33628     -272.32587     -349.25934      0              5273.3609      45.350329      20.047001      20.857         18961.893      3433.5308      8567.1226      3819.4293      38.687495     -68.806133      1020.6722    
   7640000   266.19764     -350.42371     -272.41908     -350.33406      0              6411.34        45.19737       20.047001      20.857         18897.938      7465.2549      5492.9186      6275.8466     -269.04576      1317.6116     -1213.1988    
   7640500   263.81501     -352.38851     -275.08208     -352.31789      0              5305.838       45.359421      20.047001      20.857         18965.695      4614.9031      5367.273       5935.3379     -1223.3011     -929.2107       618.94048    
   7641000   266.71527     -349.73139     -271.57508     -349.63968      0              6550.5351      45.392191      20.047001      20.857         18979.397      8359.6406      6705.0967      4586.8679     -77.662319     -2336.3627     -178.73199    
   7641500   260.4601      -348.63181     -272.30847     -348.53421      0              4965.3794      45.280302      20.047001      20.857         18932.613      6368.5886      5058.7794      3468.7702     -1145.0542      998.60329      2038.5131    
   7642000   260.72207     -350.28494     -273.88483     -350.21779      0              4089.7692      45.310209      20.047001      20.857         18945.118      3458.5329      5417.0901      3393.6848      1314.0373     -1759.0858      352.18566    
   7642500   271.10795     -350.81248     -271.36897     -350.75747      0              5571.7407      45.344865      20.047001      20.857         18959.608      8307.4324      3184.5368      5223.2528      650.91792     -193.86367     -355.39857    
   7643000   262.28804     -351.07247     -274.21348     -350.99138      0              5007.3041      45.343269      20.047001      20.857         18958.941      4398.5689      7369.7163      3253.6271      866.38484     -2006.7676      117.59663    
   7643500   262.51373     -350.42377     -273.49865     -350.3478       0              4990.8096      45.254699      20.047001      20.857         18921.908      7042.6733      3083.9584      4845.7972      5.528102      -1790.6036     -436.48681    
   7644000   273.93308     -350.86148     -270.59011     -350.78575      0              3817.332       45.382875      20.047001      20.857         18975.501      4770.1535      2419.5805      4262.262       727.02917      133.82551      886.76303    
   7644500   266.92088     -351.46676     -273.25021     -351.41291      0              5226.0508      45.63307       20.047001      20.857         19080.113      5215.6502      4395.8694      6066.633      -643.30577     -2033.919      -562.98636    
   7645000   260.88193     -349.79214     -273.34519     -349.7171       0              6312.0356      45.545851      20.047001      20.857         19043.645      5184.3581      5973.0307      7778.7181     -115.68662     -1328.2979     -201.43881    
   7645500   267.99887     -351.13745     -272.605       -351.05977      0              6383.7777      45.381109      20.047001      20.857         18974.763      7843.4767      5072.1071      6235.7493     -1223.47        1063.8662     -371.66798    
   7646000   272.44494     -351.69202     -271.85673     -351.68003      0              5172.0427      45.640841      20.047001      20.857         19083.362      4275.83        6132.5515      5107.7466      16.01351       317.42869      655.26947    
   7646500   262.5005      -349.71715     -272.79591     -349.71521      0              4348.2701      45.63705       20.047001      20.857         19081.777      4201.3749      2852.2632      5991.1723     -1654.4669      410.97133      72.077044    
   7647000   265.99632     -351.64254     -273.6969      -351.58391      0              6877.8405      45.301644      20.047001      20.857         18941.537      6195.3912      7302.6098      7135.5205     -122.13019      1871.6951      322.48073    
   7647500   260.37417     -353.03663     -276.73847     -352.95889      0              4856.2593      45.40703       20.047001      20.857         18985.601      5580.4281      4817.8978      4170.4519      193.93907      1965.1793      672.88934    
   7648000   268.47199     -352.42893     -273.75785     -352.37686      0              4871.1145      45.491966      20.047001      20.857         19021.115      3416.0128      5238.7218      5958.6088      730.59786     -680.64524      532.96796    
   7648500   261.65726     -350.45596     -273.78182     -350.39515      0              5750.2827      45.108204      20.047001      20.857         18860.656      7378.7127      7737.0169      2135.1184      750.64429     -1382.2006      365.64584    
   7649000   266.99859     -350.89552     -272.65619     -350.82261      0              5512.7155      45.084082      20.047001      20.857         18850.57       4264.3125      6471.9034      5801.9306      507.02736     -1551.3283     -1021.7205    
   7649500   268.10477     -349.53194     -270.96846     -349.47998      0              5626.7372      45.586396      20.047001      20.857         19060.598      5577.5888      4490.8364      6811.7864     -88.278641      1742.9191      1808.4365    
   7650000   268.41999     -348.50357     -269.84772     -348.45023      0              3844.7343      45.754699      20.047001      20.857         19130.968      3799.2413      3310.894       4424.0677     -911.09132      957.89387     -102.25462    
WARNING: Wall time limit reached (../timer.cpp:193)
Loop time of 85798.7 on 4 procs for 3829000 steps with 2268 atoms

Performance: 1.928 ns/day, 12.449 hours/ns, 44.628 timesteps/s
977.2% CPU use with 4 MPI tasks x no OpenMP threads

MPI task timing breakdown:
Section |  min time  |  avg time  |  max time  |%varavg| %total
---------------------------------------------------------------
Pair    | 48355      | 48446      | 48672      |  59.7 | 56.46
Bond    | 0.48628    | 0.49616    | 0.51214    |   1.4 |  0.00
Neigh   | 1232.5     | 1268.9     | 1297.9     |  69.3 |  1.48
Comm    | 5068.1     | 5240.9     | 5330.4     | 141.3 |  6.11
Output  | 478.81     | 478.81     | 478.84     |   0.1 |  0.56
Modify  | 30285      | 30353      | 30423      |  31.6 | 35.38
Other   |            | 11.04      |            |       |  0.01

Nlocal:            567 ave         580 max         548 min
Histogram: 1 0 0 0 0 0 2 0 0 1
Nghost:        3771.25 ave        3852 max        3733 min
Histogram: 2 0 1 0 0 0 0 0 0 1
Neighs:              0 ave           0 max           0 min
Histogram: 4 0 0 0 0 0 0 0 0 0
FullNghs:       144013 ave      147441 max      137129 min
Histogram: 1 0 0 0 0 0 0 0 2 1

Total # of neighbors = 576052
Ave neighs/atom = 253.99118
Ave special neighs/atom = 0
Neighbor list builds = 382900
Dangerous builds not checked

unfix		4
unfix		3
unfix		1

write_data	data.final.${pid}
write_data	data.final.0
System init for write_data ...
Generated 0 of 1 mixed pair_coeff terms from geometric mixing rule
write_restart	restart.lmp.${pid}
write_restart	restart.lmp.0
System init for write_restart ...
Generated 0 of 1 mixed pair_coeff terms from geometric mixing rule
Total wall time: 23:50:18
