LAMMPS (23 Jun 2022)
echo both

include		in.partitions
variable        pid world 0
include		in.temp
variable	temperature equal 265.0
variable        tempDamp equal 0.100 # this is 0.1 ps
include		in.pressure
variable        pressure equal 6079.5
variable        pressureDamp equal 1.0 #this is 1ps
include		in.seed
variable        seed world 745823

units           metal
atom_style	full
read_restart	restart.lmp.${pid}
read_restart	restart.lmp.0
Reading restart file ...
  restart file = 23 Jun 2022, LAMMPS = 23 Jun 2022
  restoring atom style full from restart
  orthogonal box = (1.0496599 0 0) to (46.401039 20.047001 20.857)
  4 by 1 by 1 MPI processor grid
Summary of lammps deepmd module ...
  >>> Info of deepmd-kit:
  installed to:       /u/sigbjobo/software/DEEPMD_FROM_SOURCE/deepmd-kit/install
  source:             v2.1.3
  source branch:       master
  source commit:      5a32c49
  source commit at:   2022-07-01 09:52:58 +0800
  surpport model ver.:1.1 
  build float prec:   double
  build with tf inc:  /u/sigbjobo/software/DEEPMD_FROM_SOURCE/tensorflow/install/include;/u/sigbjobo/software/DEEPMD_FROM_SOURCE/tensorflow/install/include
  build with tf lib:  /u/sigbjobo/software/DEEPMD_FROM_SOURCE/tensorflow/install/lib/libtensorflow_cc.so;/u/sigbjobo/software/DEEPMD_FROM_SOURCE/tensorflow/install/lib/libtensorflow_framework.so
  set tf intra_op_parallelism_threads: 0
  set tf inter_op_parallelism_threads: 0
  >>> Info of lammps module:
  use deepmd-kit at:  /u/sigbjobo/software/DEEPMD_FROM_SOURCE/deepmd-kit/install
  source:             v2.1.3
  source branch:      master
  source commit:      5a32c49
  source commit at:   2022-07-01 09:52:58 +0800
  build float prec:   double
  build with tf inc:  /u/sigbjobo/software/DEEPMD_FROM_SOURCE/tensorflow/install/include;/u/sigbjobo/software/DEEPMD_FROM_SOURCE/tensorflow/install/include
  build with tf lib:  /u/sigbjobo/software/DEEPMD_FROM_SOURCE/tensorflow/install/lib/libtensorflow_cc.so;/u/sigbjobo/software/DEEPMD_FROM_SOURCE/tensorflow/install/lib/libtensorflow_framework.so
  restoring pair style deepmd from restart
  2268 atoms
Finding 1-2 1-3 1-4 neighbors ...
  special bond factors lj:    0        0        0       
  special bond factors coul:  0        0        0       
     0 = max # of 1-2 neighbors
     0 = max # of 1-3 neighbors
     0 = max # of 1-4 neighbors
     1 = max # of special neighbors
  special bonds CPU = 0.000 seconds
  read_restart CPU = 0.011 seconds
include 	in.setup
variable	out_freq equal 500
variable	out_freq2 equal 1000
variable	out_freq3 equal 5000

timestep        0.0005

neigh_modify    delay 7 every 1

include         in.deepmd
# This is deepMD model

# create groups ###
#group ox type 2
#group hy type 1

mass 2 15.999
mass 1 1.008

pair_style      deepmd ../graph.pb
pair_coeff      * *

bond_style      none
angle_style     none
dihedral_style  none
improper_style  none
neigh_modify exclude none


neighbor        2.0 bin
neigh_modify    every 10 delay 0 check no

thermo          ${out_freq}
thermo          500
thermo_style 	custom step temp pe etotal epair emol press lx ly lz vol pxx pyy pzz pxy pxz pyz
#thermo_modify	flush yes
restart 	${out_freq} restart.lmp.${pid} restart2.lmp.${pid}
restart 	500 restart.lmp.${pid} restart2.lmp.${pid}
restart 	500 restart.lmp.0 restart2.lmp.${pid}
restart 	500 restart.lmp.0 restart2.lmp.0

include		in.dump
dump            myDump all atom ${out_freq3} dump.water.${pid}
dump            myDump all atom 5000 dump.water.${pid}
dump            myDump all atom 5000 dump.water.0
dump            myDump2 all dcd ${out_freq2} dump.dcd.${pid}
dump            myDump2 all dcd 1000 dump.dcd.${pid}
dump            myDump2 all dcd 1000 dump.dcd.0
dump_modify     myDump append yes
dump_modify     myDump2 append yes


timer           timeout 23:50:00 every 1000
New timer settings: style=normal  mode=nosync  timeout=23:50:00

fix             1 all plumed plumedfile plumed.dat outfile plumed.out
fix             3 all nph x ${pressure} ${pressure} ${pressureDamp}
fix             3 all nph x 6079.5 ${pressure} ${pressureDamp}
fix             3 all nph x 6079.5 6079.5 ${pressureDamp}
fix             3 all nph x 6079.5 6079.5 1
Resetting global fix info from restart file:
  fix style: nph, fix ID: 3
fix             4 all temp/csvr ${temperature} ${temperature} ${tempDamp} ${seed}
fix             4 all temp/csvr 265 ${temperature} ${tempDamp} ${seed}
fix             4 all temp/csvr 265 265 ${tempDamp} ${seed}
fix             4 all temp/csvr 265 265 0.1 ${seed}
fix             4 all temp/csvr 265 265 0.1 745823
Resetting global fix info from restart file:
  fix style: temp/csvr, fix ID: 4

run             40000000 upto

CITE-CITE-CITE-CITE-CITE-CITE-CITE-CITE-CITE-CITE-CITE-CITE-CITE

Your simulation uses code contributions which should be cited:

- USER-DEEPMD package:

@article{Wang_ComputPhysCommun_2018_v228_p178,
  author = {Wang, Han and Zhang, Linfeng and Han, Jiequn and E, Weinan},
  doi = {10.1016/j.cpc.2018.03.016},
  url = {https://doi.org/10.1016/j.cpc.2018.03.016},
  year = 2018,
  month = {jul},
  publisher = {Elsevier {BV}},
  volume = 228,
  journal = {Comput. Phys. Commun.},
  title = {{DeePMD-kit: A deep learning package for many-body potential energy representation and molecular dynamics}},
  pages = {178--184}
}

CITE-CITE-CITE-CITE-CITE-CITE-CITE-CITE-CITE-CITE-CITE-CITE-CITE

Generated 0 of 1 mixed pair_coeff terms from geometric mixing rule
All restart file global fix info was re-assigned
Neighbor list info ...
  update every 10 steps, delay 0 steps, check no
  max neighbors/atom: 2000, page size: 100000
  master list distance cutoff = 8
  ghost atom cutoff = 8
  binsize = 4, bins = 12 6 6
  1 neighbor lists, perpetual/occasional/extra = 1 0 0
  (1) pair deepmd, perpetual
      attributes: full, newton on
      pair build: full/bin
      stencil: full/bin/3d
      bin: standard
Per MPI rank memory allocation (min/avg/max) = 6.184 | 6.189 | 6.197 Mbytes
   Step          Temp          PotEng         TotEng         E_pair         E_mol          Press            Lx             Ly             Lz           Volume          Pxx            Pyy            Pzz            Pxy            Pxz            Pyz      
  26597000   260.59961     -347.04941     -270.68519     -347.04941      0              6398.0921      45.351379      20.047001      20.857         18962.332      8394.7433      6611.5664      4187.9665     -1368.0889      1385.4476      222.09766    
  26597500   261.60622     -349.75291     -273.09373     -349.74417      0              5511.9502      45.520568      20.047001      20.857         19033.074      6166.3228      6385.7584      3983.7694     -1052.8848     -1176.9603      710.37339    
  26598000   267.85517     -348.7993      -270.30896     -348.82172      0              5622.2181      45.66168       20.047001      20.857         19092.076      3899.37        6344.7693      6622.5151      1894.032       398.72215     -399.16784    
  26598500   261.41764     -347.70245     -271.09852     -347.70301      0              6091.5463      45.567086      20.047001      20.857         19052.524      7480.9461      3899.3316      6894.3612     -195.4119      -279.56431      161.73859    
  26599000   263.12774     -348.39347     -271.28842     -348.40155      0              5240.2441      45.663613      20.047001      20.857         19092.884      8874.6329      2602.592       4243.5073     -619.40917      2892.3409      468.89039    
  26599500   274.45485     -349.62454     -269.20028     -349.65172      0              6042.0551      45.739933      20.047001      20.857         19124.794      5239.5517      6770.3513      6116.2623     -207.33081      1509.0711     -393.47537    
  26600000   267.87544     -348.85382     -270.35754     -348.84751      0              5803.2719      45.677191      20.047001      20.857         19098.561      7345.9697      5593.2836      4470.5625     -804.43993     -801.80867      11.527015    
  26600500   264.44016     -349.06647     -271.57684     -349.04583      0              6050.4339      45.678488      20.047001      20.857         19099.103      6012.5213      5334.2997      6804.4809      200.10817     -2159.0228     -99.466353    
  26601000   260.83581     -348.48363     -272.0502      -348.50088      0              5762.2836      45.815623      20.047001      20.857         19156.442      6354.6876      5869.6416      5062.5216     -1368.4236      2344.8188      311.72757    
  26601500   263.12338     -351.36118     -274.25741     -351.35645      0              3745.005       45.726911      20.047001      20.857         19119.35       4106.4894      988.02762      6140.4979     -1942.769       1701.3257      936.40698    
  26602000   258.80557     -346.7928      -270.95429     -346.80158      0              6556.9336      45.395879      20.047001      20.857         18980.938      7184.6566      7335.0421      5151.1023     -916.92285      62.383986      558.28964    
  26602500   263.37118     -345.58245     -268.40607     -345.58072      0              5717.6706      45.698939      20.047001      20.857         19107.654      7364.7922      4663.3474      5124.8723     -308.51586     -415.05021     -376.33952    
  26603000   258.46911     -348.58218     -272.84226     -348.5858       0              5391.6765      45.875421      20.047001      20.857         19181.445      7736.0881      3057.1477      5381.7938     -732.46039      393.34025     -865.63921    
  26603500   263.28736     -346.21262     -269.0608      -346.22233      0              6242.8203      45.651733      20.047001      20.857         19087.916      6826.6548      5551.8997      6349.9064      255.42226      1080.3624      1265.54      
  26604000   261.40158     -346.95548     -270.35625     -346.98318      0              5060.2118      45.774518      20.047001      20.857         19139.255      4402.2174      5775.7792      5002.6389      796.79328      1865.4033      503.02497    
  26604500   263.69176     -350.02675     -272.75643     -350.04139      0              5570.1179      45.821408      20.047001      20.857         19158.861      7688.7797      4118.1934      4903.3806     -730.08631      1537.5169     -1966.0254    
  26605000   258.99916     -345.9054      -270.01016     -345.93595      0              4513.015       45.840443      20.047001      20.857         19166.82       6138.9975      3205.9222      4194.1253     -600.21684      38.201039     -1930.4931    
  26605500   269.16496     -348.51847     -269.64432     -348.52171      0              4106.864       45.573048      20.047001      20.857         19055.017      4674.3165      1825.6787      5820.5968     -1114.4098     -660.87383      1609.8838    
  26606000   270.55156     -348.87382     -269.59336     -348.87421      0              6297.2441      45.408002      20.047001      20.857         18986.008      6532.204       5544.5201      6815.0083     -999.82482     -1604.3185     -1856.8342    
  26606500   265.44426     -347.26741     -269.48355     -347.28426      0              4184.5227      45.639369      20.047001      20.857         19082.746      4612.8484      5384.0633      2556.6563      345.7224      -988.073        338.10207    
  26607000   249.51086     -348.25726     -275.14241     -348.27726      0              5494.5833      45.989246      20.047001      20.857         19229.037      6067.8895      4291.1093      6124.751       666.92694      2554.5852     -1149.6487    
  26607500   270.55106     -347.97809     -268.69777     -348.00835      0              4586.1938      45.734923      20.047001      20.857         19122.7        4661.228       6110.3057      2987.0477     -722.02155     -291.81149     -61.936098    
  26608000   257.73913     -346.45707     -270.93107     -346.45504      0              5364.5485      45.571958      20.047001      20.857         19054.561      7755.2522      5120.7133      3217.6799     -1614.7064     -159.12542     -583.29892    
  26608500   263.49361     -348.35537     -271.14311     -348.40879      0              5658.8564      45.783556      20.047001      20.857         19143.034      6350.203       3184.8615      7441.5049     -1137.7874      35.976449      166.01599    
  26609000   265.25651     -350.09319     -272.36434     -350.11999      0              3645.3715      45.827601      20.047001      20.857         19161.45       3575.0463      4774.2122      2586.8559     -155.90516     -1429.1962     -345.67626    
  26609500   268.89945     -348.91074     -270.11439     -348.93856      0              3306.5494      45.711733      20.047001      20.857         19113.003      2210.9133      3349.1902      4359.5445     -366.97567      222.51125      1443.4545    
  26610000   256.87411     -347.74885     -272.47633     -347.77953      0              6202.7729      45.650101      20.047001      20.857         19087.234      9176.3967      5526.0824      3905.8396     -1418.5785     -76.723558     -658.8383     
  26610500   267.43617     -350.00764     -271.64008     -350.0277       0              4702.5749      45.572996      20.047001      20.857         19054.995      5096.3438      4646.9673      4364.4135     -150.72993      2802.346      -2743.1637    
  26611000   262.66859     -349.01822     -272.04772     -349.0535       0              5589.7576      45.526805      20.047001      20.857         19035.682      8181.4597      3930.9413      4656.872      -274.43118      1014.7267     -610.79241    
  26611500   263.4787      -349.87806     -272.67017     -349.89957      0              6206.4606      45.613762      20.047001      20.857         19072.04       8155.6815      6054.0374      4409.663       214.8405      -525.42566     -2233.7497    
  26612000   267.34446     -346.09338     -267.7527      -346.11093      0              7405.0502      45.771022      20.047001      20.857         19137.794      5529.2885      10421.861      6264.0013     -637.84041     -727.96174     -26.328531    
  26612500   267.05993     -345.68542     -267.42811     -345.73437      0              5049.3892      45.955645      20.047001      20.857         19214.988      5923.7576      5761.8129      3462.5972      1006.3339     -1549.4036     -1663.4433    
  26613000   269.98914     -346.7911      -267.67544     -346.80032      0              4932.7722      45.696643      20.047001      20.857         19106.694      6440.67        1509.8021      6847.8445      442.43447     -825.46346      434.38792    
  26613500   270.26445     -345.40141     -266.20508     -345.40189      0              4669.6605      45.532453      20.047001      20.857         19038.043      6355.6078      3715.8588      3937.5149      413.70544     -244.24049     -2299.3307    
  26614000   264.68373     -346.17892     -268.61792     -346.20963      0              5323.0299      45.680073      20.047001      20.857         19099.766      6324.6455      4339.1986      5305.2456     -107.80868     -1008.9078     -665.80002    
  26614500   256.91489     -348.51542     -273.23095     -348.53062      0              3814.6883      45.838324      20.047001      20.857         19165.934      3813.8865      3539.0232      4091.1553     -873.07153      1190.1382     -2474.7689    
  26615000   273.55208     -347.88674     -267.72703     -347.88665      0              6304.0575      45.353083      20.047001      20.857         18963.045      8006.8861      6185.7182      4719.5683      415.55748      911.67364      278.30781    
  26615500   276.81169     -347.81813     -266.70324     -347.83833      0              4659.5403      45.196689      20.047001      20.857         18897.653      3370.2579      6565.8847      4042.4783      1394.8491      1479.078      -74.815263    
  26616000   269.86377     -347.07488     -267.99596     -347.09724      0              8072.0254      45.435061      20.047001      20.857         18997.321      7795.1493      7951.1078      8469.8192     -112.36734     -1198.5166      1811.4415    
  26616500   269.27505     -349.5048      -270.59839     -349.54059      0              4365.1235      45.590338      20.047001      20.857         19062.246      1816.4737      6349.843       4929.0537     -27.011005     -393.35896      1316.6353    
  26617000   262.69732     -347.85077     -270.87185     -347.88873      0              4054.123       45.465804      20.047001      20.857         19010.176      5873.8148      4072.1333      2216.4211      1754.8354      314.61084      707.13538    
  26617500   270.98909     -347.09545     -267.68677     -347.11963      0              7232.4508      45.337693      20.047001      20.857         18956.61       7518.7193      6922.7941      7255.839       965.74379      1150.6002      0.36519703   
  26618000   264.85072     -347.81317     -270.20324     -347.83879      0              4394.0669      45.569027      20.047001      20.857         19053.335      5694.6863      2757.1968      4730.3177     -1114.5397     -106.13438      1297.2319    
  26618500   265.30997     -346.93722     -269.19271     -346.94         0              5772.4813      45.480059      20.047001      20.857         19016.136      6127.0125      5857.6752      5332.7564     -203.80392      999.32057     -620.48619    
  26619000   266.98076     -346.25022     -268.01611     -346.2975       0              4668.3258      45.296578      20.047001      20.857         18939.419      4389.0688      4885.7545      4730.1541     -598.31303     -171.87393     -132.77703    
  26619500   276.98666     -348.63518     -267.46902     -348.63535      0              6665.3518      45.254358      20.047001      20.857         18921.766      10128.026      3495.0049      6373.0246     -63.375792      1055.0666      476.89197    
  26620000   273.0589      -349.30747     -269.29227     -349.32861      0              5962.0653      45.575523      20.047001      20.857         19056.051      6067.1184      5915.6446      5903.4329      721.23072      347.44903     -218.7375     
  26620500   258.94266     -352.05871     -276.18003     -352.07219      0              5360.1669      45.598709      20.047001      20.857         19065.746      4744.7718      6467.7339      4867.9949     -419.77328      1437.6732      577.82109    
  26621000   268.5044      -349.81286     -271.13228     -349.82934      0              6908.6486      45.50568       20.047001      20.857         19026.849      6578.4769      7738.3154      6409.1534      360.77589      73.864647      2413.6233    
  26621500   263.79429     -349.80923     -272.50886     -349.83494      0              5660.3589      45.420089      20.047001      20.857         18991.061      6625.5834      4854.3898      5501.1037      291.38145     -2423.9087      318.70214    
  26622000   260.6887      -348.84883     -272.45851     -348.82575      0              7192.1669      45.547589      20.047001      20.857         19044.371      7259.7234      5731.4873      8585.2901     -247.9086       1407.782      -356.89148    
  26622500   258.51291     -348.56518     -272.81243     -348.58978      0              6160.1612      45.880707      20.047001      20.857         19183.655      8209.0034      5258.8563      5012.6239     -1140.6938     -498.51115     -1124.2251    
  26623000   264.72616     -348.81254     -271.2391      -348.85178      0              5395.1358      45.756474      20.047001      20.857         19131.711      5984.8248      5003.5362      5197.0463     -679.44031      260.43026      10.844866    
  26623500   265.17008     -349.16228     -271.45877     -349.16124      0              5956.5787      45.640383      20.047001      20.857         19083.17       6061.0972      5326.7361      6481.9027     -311.24752      2111.6962      812.57646    
  26624000   266.05637     -348.85027     -270.88705     -348.88473      0              4495.4286      45.562019      20.047001      20.857         19050.405      5008.1455      4699.8377      3778.3027     -1177.8159     -957.30705     -1679.2949    
  26624500   254.7456      -347.57376     -272.92496     -347.60301      0              5817.4288      45.610339      20.047001      20.857         19070.609      2606.3616      7564.8327      7281.0922      1707.4326     -409.21395     -551.52529    
  26625000   264.9534      -350.85836     -273.21834     -350.85306      0              3915.315       45.626802      20.047001      20.857         19077.492      2862.2086      4552.5137      4331.2227      77.055626      192.20525      1017.4249    
  26625500   265.9653      -347.01392     -269.07738     -347.02722      0              4411.193       45.453091      20.047001      20.857         19004.86       4370.6685      6314.0101      2548.9005     -205.49111     -17.654597     -355.59617    
  26626000   264.85335     -349.01485     -271.40415     -349.06796      0              4396.3092      45.530543      20.047001      20.857         19037.244      5199.7673      4093.7299      3895.4304      508.39533     -916.43503      285.21891    
  26626500   263.82092     -350.27709     -272.96892     -350.28723      0              6110.3324      45.475203      20.047001      20.857         19014.105      7543.0472      7215.8195      3572.1306      666.25646      134.28025     -244.51807    
  26627000   269.91744     -348.23734     -269.14269     -348.25731      0              5053.1302      45.766713      20.047001      20.857         19135.992      3241.0203      4910.3655      7008.0047      154.46064      1972.2243     -2162.7151    
  26627500   264.50005     -350.47409     -272.96692     -350.48181      0              6905.5191      45.910252      20.047001      20.857         19196.008      6706.6687      5923.9506      8085.9379     -1280.5928     -959.12717     -1602.3472    
  26628000   262.72945     -350.17057     -273.18224     -350.22597      0              5490.2133      45.777146      20.047001      20.857         19140.354      6008.4999      4957.7146      5504.4255     -1199.0573     -178.92384     -427.16862    
  26628500   263.90303     -349.48657     -272.15434     -349.52416      0              5270.5872      45.672842      20.047001      20.857         19096.742      6435.9971      5240.5315      4135.233      -722.81405     -577.66473      524.51829    
  26629000   269.65065     -352.64742     -273.63095     -352.65599      0              8479.6399      45.729516      20.047001      20.857         19120.439      10660.483      6387.1057      8391.3309     -1166.4476     -36.128482     -1096.4241    
  26629500   270.40215     -351.10072     -271.86404     -351.13818      0              3864.5695      45.957243      20.047001      20.857         19215.656      4100.9523      2134.9336      5357.8225     -236.29262      971.22324      458.77886    
  26630000   261.63735     -349.31404     -272.64572     -349.33783      0              5298.0014      45.877039      20.047001      20.857         19182.121      5804.9508      4799.0051      5290.0484     -494.22364      508.57751      793.65853    
  26630500   257.00425     -347.5892      -272.27853     -347.61739      0              3274.0884      45.659551      20.047001      20.857         19091.185      4781.781       371.4298       4669.0545     -527.68832     -308.80025     -175.93523    
  26631000   258.62317     -346.973       -271.18794     -346.98389      0              6419.3855      45.492971      20.047001      20.857         19021.535      7094.3504      5716.9009      6446.9052     -9.5198224      814.66283      790.7996     
  26631500   266.95443     -349.59279     -271.3664      -349.63927      0              4894.624       45.894096      20.047001      20.857         19189.253      5552.7532      3135.0717      5996.0471     -365.68357     -1096.8664     -962.23185    
  26632000   271.6468      -347.99081     -268.3894      -348.01373      0              4123.8597      46.02935       20.047001      20.857         19245.806      3313.7869      6744.849       2312.943       959.09476     -773.31221      1427.6101    
  26632500   268.49858     -346.50978     -267.8309      -346.55049      0              5200.5568      45.855185      20.047001      20.857         19172.984      6226.4242      3972.403       5402.8433     -822.5979       970.12994      1029.6628    
  26633000   269.35599     -345.97475     -267.04462     -346.00475      0              6212.2878      45.721756      20.047001      20.857         19117.194      7398.1632      6988.5645      4250.1357      60.173355     -41.820766     -456.23746    
  26633500   259.67862     -346.24348     -270.14914     -346.25164      0              5084.0856      45.722868      20.047001      20.857         19117.659      5733.8798      4995.0143      4523.3626      937.47195     -767.50872     -1589.1471    
  26634000   270.02135     -348.84758     -269.72248     -348.85363      0              6523.3801      45.734139      20.047001      20.857         19122.372      6832.7761      7084.7929      5652.5712     -174.95775      380.24192     -847.8122     
  26634500   271.26864     -346.08185     -266.59125     -346.12986      0              4591.0862      45.757865      20.047001      20.857         19132.292      5950.1695      3784.4311      4038.658       66.985813      849.63517     -1132.5396    
  26635000   263.86675     -348.7468      -271.4252      -348.77472      0              5314.7301      45.862443      20.047001      20.857         19176.018      5850.0948      2219.2795      7874.8162      1070.58        80.123515      1681.4732    
  26635500   263.10228     -347.48569     -270.3881      -347.52461      0              6027.809       45.604045      20.047001      20.857         19067.977      7323.3707      6408.033       4352.0234     -2268.3036     -1847.7964     -193.99091    
  26636000   263.5528      -346.33817     -269.10857     -346.38441      0              5667.544       45.431134      20.047001      20.857         18995.679      6050.0085      5742.7978      5209.8256      1047.0949     -311.18349      1364.2164    
  26636500   260.42532     -348.95653     -272.64339     -348.95691      0              3882.1144      45.691886      20.047001      20.857         19104.705      6952.4371      1677.7897      3016.1164     -55.978971     -772.74239     -203.78148    
  26637000   259.99975     -349.25898     -273.07054     -349.27745      0              3640.5079      45.986221      20.047001      20.857         19227.773      3424.8676      5530.342       1966.314      -481.84443      500.73283      454.02781    
  26637500   265.58934     -347.64375     -269.81738     -347.62938      0              6367.4864      45.751136      20.047001      20.857         19129.479      7516.9546      3524.886       8060.6188     -718.67442     -1662.0474      2383.023     
  26638000   270.31826     -346.38051     -267.16841     -346.39189      0              6253.3595      45.595054      20.047001      20.857         19064.218      6908.6181      5736.156       6115.3043      359.48259     -1963.6867      1100.252     
  26638500   262.57208     -346.59438     -269.65216     -346.6144       0              5556.1085      45.702291      20.047001      20.857         19109.056      4443.084       6839.9691      5385.2723     -1599.8325     -1133.7097      1174.4818    
  26639000   262.88131     -348.7862      -271.75337     -348.80828      0              4439.8916      45.859982      20.047001      20.857         19174.989      6495.5243      2979.0948      3845.0557      305.26835      328.72289      1893.7475    
  26639500   254.13547     -348.59682     -274.1268      -348.58939      0              4325.4668      45.927681      20.047001      20.857         19203.296      6323.4438      3536.244       3116.7126      348.88948      6.8370551      375.05429    
  26640000   263.9305      -348.49084     -271.15056     -348.49859      0              5364.7029      45.654276      20.047001      20.857         19088.979      6413.9544      4776.9023      4903.2519      2045.3141      628.37276      137.6991     
  26640500   264.73987     -351.13083     -273.55338     -351.11418      0              6079.139       45.675402      20.047001      20.857         19097.813      3574.3632      8880.1582      5782.8957     -1276.1493     -732.03714     -148.47065    
  26641000   256.34059     -349.66697     -274.55078     -349.63015      0              4906.1212      45.802322      20.047001      20.857         19150.88       6235.8899      2920.9154      5561.5584     -1058.9669      1451.6279      397.69671    
  26641500   256.96214     -349.76996     -274.47163     -349.7908       0              7117.0722      45.700238      20.047001      20.857         19108.197      6658.6254      6877.7218      7814.8693      937.79428     -306.27151      543.5667     
  26642000   256.57786     -345.63665     -270.45093     -345.64732      0              5748.4284      45.656273      20.047001      20.857         19089.814      6620.8941      4501.841       6122.5502      2058.9466     -661.33505     -425.96305    
  26642500   273.04666     -346.35186     -266.34025     -346.387        0              3771.8592      45.855313      20.047001      20.857         19173.037      4032.8915      2250.1247      5032.5614     -1323.9605     -1156.2645     -52.323793    
  26643000   267.80554     -347.70962     -269.23383     -347.72837      0              5388.6608      45.820761      20.047001      20.857         19158.59       5181.6207      6031.5821      4952.7796     -603.30656     -101.05979     -413.40147    
  26643500   273.07568     -346.99832     -266.97821     -347.03336      0              5550.5468      45.607767      20.047001      20.857         19069.533      4559.4835      5260.4192      6831.7377     -147.7073       83.132794     -860.28519    
  26644000   267.06436     -348.85083     -270.59222     -348.85427      0              5072.6516      45.604677      20.047001      20.857         19068.241      3110.4181      6839.3066      5268.2299     -1351.0238     -1125.5792      1470.0332    
  26644500   263.57548     -349.44255     -272.20631     -349.45441      0              4130.8499      45.839273      20.047001      20.857         19166.33       4829.8123      3224.9697      4337.7678      629.39711      1236.3546     -816.69465    
  26645000   267.06519     -349.15904     -270.9002      -349.17158      0              4903.0368      45.741018      20.047001      20.857         19125.248      6725.7338      3846.8581      4136.5186     -75.814898     -743.96831     -1425.9124    
  26645500   265.81875     -350.53233     -272.63873     -350.54223      0              5227.4524      45.602577      20.047001      20.857         19067.363      5652.9039      5184.5351      4844.9181      316.33157     -631.62701     -26.689945    
  26646000   263.20042     -347.58612     -270.45978     -347.57926      0              7743.7773      45.664394      20.047001      20.857         19093.21       8916.5432      8209.3233      6105.4655     -293.15409      1732.671      -1299.1832    
  26646500   275.42376     -347.93589     -267.22771     -347.95704      0              4689.1221      45.90291       20.047001      20.857         19192.939      2073.8798      6788.6954      5204.7912      1386.7098      256.4681       1561.3964    
  26647000   269.69825     -349.99349     -270.96307     -350.02586      0              4688.1808      45.964273      20.047001      20.857         19218.596      4786.96        4932.2106      4345.3718     -569.30065     -526.42195     -928.25687    
ERROR on proc 0: Cannot open restart file restart.lmp.0: Permission denied (../write_restart.cpp:233)
Last command: run             40000000 upto
